      -----------------------------------------------------------      
     |                   =====================                   |     
     |                           x T B                           |     
     |                   =====================                   |     
     |                         S. Grimme                         |     
     |          Mulliken Center for Theoretical Chemistry        |     
     |                    University of Bonn                     |     
      -----------------------------------------------------------      

   * xtb version 6.7.1 (edcfbbe) compiled by 'albert@albert-system' on 2024-07-22

   xtb is free software: you can redistribute it and/or modify it under
   the terms of the GNU Lesser General Public License as published by
   the Free Software Foundation, either version 3 of the License, or
   (at your option) any later version.
   
   xtb is distributed in the hope that it will be useful,
   but WITHOUT ANY WARRANTY; without even the implied warranty of
   MERCHANTABILITY or FITNESS FOR A PARTICULAR PURPOSE.  See the
   GNU Lesser General Public License for more details.
   
   Cite this work as:
   * C. Bannwarth, E. Caldeweyher, S. Ehlert, A. Hansen, P. Pracht,
     J. Seibert, S. Spicher, S. Grimme, WIREs Comput. Mol. Sci., 2020, 11,
     e01493. DOI: 10.1002/wcms.1493
   
   for GFN2-xTB:
   * C. Bannwarth, S. Ehlert and S. Grimme., J. Chem. Theory Comput., 2019,
     15, 1652-1671. DOI: 10.1021/acs.jctc.8b01176
   for GFN1-xTB:
   * S. Grimme, C. Bannwarth, P. Shushkov, J. Chem. Theory Comput., 2017,
     13, 1989-2009. DOI: 10.1021/acs.jctc.7b00118
   for GFN0-xTB:
   * P. Pracht, E. Caldeweyher, S. Ehlert, S. Grimme, ChemRxiv, 2019, preprint.
     DOI: 10.26434/chemrxiv.8326202.v1
   for GFN-FF:
   * S. Spicher and S. Grimme, Angew. Chem. Int. Ed., 2020, 59, 15665-15673.
     DOI: 10.1002/anie.202004239
   
   for ALPB and GBSA implicit solvation:
   * S. Ehlert, M. Stahn, S. Spicher, S. Grimme, J. Chem. Theory Comput.,
     2021, 17, 4250-4261. DOI: 10.1021/acs.jctc.1c00471
   
   for ddCOSMO and CPCM-X implicit solvation:
   * M. Stahn, S. Ehlert, S. Grimme, J. Phys. Chem. A,
     2023, XX, XXXX-XXXX. DOI: 10.1021/acs.jpca.3c04382
   
   for DFT-D4:
   * E. Caldeweyher, C. Bannwarth and S. Grimme, J. Chem. Phys., 2017,
     147, 034112. DOI: 10.1063/1.4993215
   * E. Caldeweyher, S. Ehlert, A. Hansen, H. Neugebauer, S. Spicher,
     C. Bannwarth and S. Grimme, J. Chem. Phys., 2019, 150, 154122.
     DOI: 10.1063/1.5090222
   * E. Caldeweyher, J.-M. Mewes, S. Ehlert and S. Grimme, Phys. Chem. Chem. Phys.
     2020, 22, 8499-8512. DOI: 10.1039/D0CP00502A
   
   for sTDA-xTB:
   * S. Grimme and C. Bannwarth, J. Chem. Phys., 2016, 145, 054103.
     DOI: 10.1063/1.4959605
   
   in the mass-spec context:
   * V. Asgeirsson, C. Bauer and S. Grimme, Chem. Sci., 2017, 8, 4879.
     DOI: 10.1039/c7sc00601b
   * J. Koopman and S. Grimme, ACS Omega 2019, 4, 12, 15120-15133.
     DOI: 10.1021/acsomega.9b02011
   
   for metadynamics refer to:
   * S. Grimme, J. Chem. Theory Comput., 2019, 155, 2847-2862
     DOI: 10.1021/acs.jctc.9b00143
   
   for SPH calculations refer to:
   * S. Spicher and S. Grimme, J. Chem. Theory Comput., 2021, 17, 1701-1714
     DOI: 10.1021/acs.jctc.0c01306
   
   for ONIOM refer to:
   * C. Plett, A. Katbashev, S. Ehlert, S. Grimme, M. Bursch,
     Phys. Chem. Chem. Phys., 2023, 25, 17860-17868. DOI: 10.1039/D3CP02178E
   
   for DIPRO refer to:
   * J. Kohn, N. Gildemeister, S. Grimme, D. Fazzi, A. Hansen,
     J. Chem. Phys., 2023, just accepted.
   
   for PTB refer to:
   * S. Grimme, M. Mueller, A. Hansen, J. Chem. Phys., 2023, 158, 124111.
     DOI: 10.1063/5.0137838
   
   with help from (in alphabetical order)
   P. Atkinson, C. Bannwarth, F. Bohle, G. Brandenburg, E. Caldeweyher
   M. Checinski, S. Dohm, S. Ehlert, S. Ehrlich, I. Gerasimov, C. Hölzer
   A. Katbashev, J. Kohn, J. Koopman, C. Lavigne, S. Lehtola, F. März, M. Müller,
   F. Musil, H. Neugebauer, J. Pisarek, C. Plett, P. Pracht, F. Pultar,
   J. Seibert, P. Shushkov, S. Spicher, M. Stahn, M. Steiner, T. Strunk,
   J. Stückrath, T. Rose, and J. Unsleber
   
 * started run on 2025/04/15 at 19:05:07.060     
   ID    Z sym.   atoms
    1    6 C      1-4, 6, 7
    2    7 N      5, 8
    3    1 H      9-12

           -------------------------------------------------
          |                Calculation Setup                |
           -------------------------------------------------

          program call               : /software/projects/pawsey0265/mwang1/xtb/bin/xtb xtb_opt.coord --opt normal --orca -I xtb_opt-xcontrol-inp
          hostname                   : nid002794
          coordinate file            : xtb_opt.coord
          omp threads                :                     6

           -------------------------------------------------
          |                   Orca driver                   |
           -------------------------------------------------
orca executable           : /software/projects/pawsey0265/mwang1/orca_avx2/orca
orca input file           : xtb_opt.inp
orca input line           : 
orca parallel             : true
orca number of threads    : 6
                         * ORCA takes the control...
  ------------------------------------------------------------------------

                                 *****************
                                 * O   R   C   A *
                                 *****************

                                            #,                                       
                                            ###                                      
                                            ####                                     
                                            #####                                    
                                            ######                                   
                                           ########,                                 
                                     ,,################,,,,,                         
                               ,,#################################,,                 
                          ,,##########################################,,             
                       ,#########################################, ''#####,          
                    ,#############################################,,   '####,        
                  ,##################################################,,,,####,       
                ,###########''''           ''''###############################       
              ,#####''   ,,,,##########,,,,          '''####'''          '####       
            ,##' ,,,,###########################,,,                        '##       
           ' ,,###''''                  '''############,,,                           
         ,,##''                                '''############,,,,        ,,,,,,###''
      ,#''                                            '''#######################'''  
     '                                                          ''''####''''         
             ,#######,   #######,   ,#######,      ##                                
            ,#'     '#,  ##    ##  ,#'     '#,    #''#        ,####,   ,####,        
            ##       ##  ##   ,#'  ##            #'  '#       #'       #'  '#        
            ##       ##  #######   ##           ,######,      #####,   #    #        
            '#,     ,#'  ##    ##  '#,     ,#' ,#      #,     #,   #   #,  ,#        
             '#######'   ##     ##  '#######'  #'      '#     '####' # '####'        



                #########################################################
                #                        -***-                          #
                #          Department of theory and spectroscopy        #
                #                                                       #
                #                      Frank Neese                      #
                #                                                       #
                #     Directorship, Architecture, Infrastructure        #
                #                    SHARK, DRIVERS                     #
                #        Core code/Algorithms in most modules           #
                #                                                       #
                #        Max Planck Institute fuer Kohlenforschung      #
                #                Kaiser Wilhelm Platz 1                 #
                #                 D-45470 Muelheim/Ruhr                 #
                #                      Germany                          #
                #                                                       #
                #                  All rights reserved                  #
                #                        -***-                          #
                #########################################################


                         Program Version 6.0.1  -  RELEASE   -


 With contributions from (in alphabetic order):
[Max-Planck-Institut fuer Kohlenforschung]                               
  Daniel Aravena         : Magnetic Suceptibility                        
  Michael Atanasov       : Ab Initio Ligand Field Theory (pilot matlab implementation)
  Alexander A. Auer      : GIAO ZORA, VPT2 properties, NMR spectrum      
  Ute Becker             : All parallelization in ORCA, NUMFREQ, NUMCALC 
  Giovanni Bistoni       : ED, misc. LED, open-shell LED, HFLD           
  Martin Brehm           : Molecular dynamics                            
  Dmytro Bykov           : pre 5.0 version of the SCF Hessian            
  Marcos Casanova-Páez   : Triplet and SCS-CIS(D). UHF-(DLPNO)-IP/EA/STEOM-CCSD. UHF-CVS-IP/STEOM-CCSD   
  Vijay G. Chilkuri      : MRCI spin determinant printing, contributions to CSF-ICE 
  Pauline Colinet        : FMM embedding                                 
  Dipayan Datta          : RHF DLPNO-CCSD density                        
  Achintya Kumar Dutta   : EOM-CC, STEOM-CC                              
  Nicolas Foglia         : Exact transition moments, OPA infrastructure, MCD improvements    
  Dmitry Ganyushin       : Spin-Orbit,Spin-Spin,Magnetic field MRCI      
  Miquel Garcia-Rates    : C-PCM and meta-GGA Hessian, CCSD/C-PCM, Gaussian charge scheme 
  Tiago L. C. Gouveia    : GS-ROHF, GS-ROCIS                             
  Yang Guo               : DLPNO-NEVPT2, F12-NEVPT2, CIM, IAO-localization        
  Andreas Hansen         : Spin unrestricted coupled pair/coupled cluster methods 
  Ingolf Harden          : AUTO-CI MPn and infrastructure                
  Benjamin Helmich-Paris : MC-RPA, TRAH-(SCF,CASSCF), AVAS, COSX integrals, SCF dyn. polar. 
  Lee Huntington         : MR-EOM, pCC                                   
  Robert Izsak           : Overlap fitted RIJCOSX, COSX-SCS-MP3, EOM     
  Riya Kayal             : Wick's Theorem for AUTO-CI, AUTO-CI UHF-CCSDT 
  Emily Kempfer          : AUTO-CI, RHF CISDT and CCSDT                  
  Christian Kollmar      : KDIIS, OOCD, Brueckner-CCSD(T), CCSD density, CASPT2, CASPT2-K, improved NEVPT2 
  Axel Koslowski         : Symmetry handling                             
  Simone Kossmann        : meta-GGA functionals, TD-DFT gradient, OOMP2, (MP2 Hessian; deprecated post 5.0) 
  Lucas Lang             : DCDCAS                                        
  Marvin Lechner         : AUTO-CI (C++ implementation), FIC-MRCC        
  Spencer Leger          : CASSCF response                               
  Dagmar Lenk            : GEPOL surface, SMD, ORCA-2-JSON               
  Dimitrios Liakos       : Extrapolation schemes; Compound Job, initial MDCI parallelization 
  Dimitrios Manganas     : Further ROCIS development; embedding schemes. LFT, Crystal Embedding 
  Dimitrios Pantazis     : SARC Basis sets                               
  Anastasios Papadopoulos: AUTO-CI, single reference methods and gradients 
  Taras Petrenko         : pre 6.0 DFT Hessian and TD-DFT gradient, (ASA, deprecated), ECA, 1-Electron XAS/XES, NRVS 
  Peter Pinski           : DLPNO-MP2, DLPNO-MP2 Gradient                 
  Christoph Reimann      : Effective Core Potentials                     
  Marius Retegan         : Local ZFS, SOC                                
  Christoph Riplinger    : Optimizer, TS searches, QM/MM, DLPNO-CCSD(T), (RO)-DLPNO pert. Triples 
  Michael Roemelt        : Original ROCIS implementation                 
  Masaaki Saitow         : Open-shell DLPNO-CCSD energy and density      
  Barbara Sandhoefer     : DKH picture change effects                    
  Kantharuban Sivalingam : CASSCF convergence/infrastructure, NEVPT2 and variants, FIC-MRCI 
  Bernardo de Souza      : ESD, SOC TD-DFT                               
  Georgi L. Stoychev     : AutoAux, RI-MP2 NMR, DLPNO-MP2 response, X2C  
  Van Anh Tran           : RI-MP2 g-tensors                              
  Willem Van den Heuvel  : Paramagnetic NMR                              
  Zikuan Wang            : NOTCH, Electric field optimization            
  Frank Wennmohs         : Technical directorship and infrastructure     
  Hang Xu                : AUTO-CI-Response properties                   
                                                                         
[FACCTs GmbH]                                                            
  Markus Bursch, Miquel Garcia-Rates, Christoph Riplinger, Bernardo de Souza, Georgi L. Stoychev 
                                                                 
  APM, Basis sets (HGBS, AHGBS, def-TZVP (Ac-Lr), def2-XVPD (La-Lu)), CI-OPT, improved COSX, DLPNO-Multilevel,           
  DOCKER, DRACO, updates on ESD, GOAT, IRC, LR-CPCM, MBIS, meta-GGA TD-DFT gradient, ML-optimized integration grids, 
  MM, NACMEs, nearIR, NEB, NEB-TS, NL-DFT gradient (VV10), 2- and 3-layer-ONIOM, interface openCOSMO-RS, QMMM,   
  Crystal-QMMM, SF, symmetry and pop. for TD-DFT, r2SCAN hybrids, SOLVATOR                                   
                                                                         
[Other institutions]                                                     
  V. Asgeirsson          : NEB                                           
  Christoph Bannwarth    : sTDA-DFT, sTD-DFT, PBEh-3c, B97-3c, D3        
  Sebastian Ehlert       : rSCAN, r2SCAN, r2SCAN-3c, D4, dhf basis sets  
  Marvin Friede          : D4 for Fr, Ra, Ac-Lr                          
  Lars Goerigk           : TD-DFT with DH, B97 family of functionals     
  Stefan Grimme          : VdW corrections, initial TS optimization, DFT functionals, gCP, sTDA/sTD-DF 
  Waldemar Hujo          : DFT-NL                                        
  H. Jonsson             : NEB                                           
  Holger Kruse           : gCP                                           
  Marcel Mueller         : wB97X-3c, vDZP basis set                      
  Hagen Neugebauer       : wr2SCAN                                       
  Tobias Risthaus        : range-separated hybrid DFT                    
  Lukas Wittmann         : regularized MP2, r2SCAN double-hybrids, wr2SCAN        
                                                                         
We gratefully acknowledge several colleagues who have allowed us to      
interface, adapt or use parts of their codes:                            
  Ed Valeev, F. Pavosevic, A. Kumar             : LibInt (2-el integral package), F12 methods 
  Garnet Chan, S. Sharma, J. Yang, R. Olivares  : DMRG                   
  Ulf Ekstrom                                   : XCFun DFT Library      
  Mihaly Kallay                                 : mrcc  (arbitrary order and MRCC methods)
  Frank Weinhold                                : gennbo (NPA and NBO analysis)           
  Simon Mueller                                 : openCOSMO-RS                            
  Christopher J. Cramer and Donald G. Truhlar   : smd solvation model                     
  S Lehtola, MJT Oliveira, MAL Marques          : LibXC Library                           
  Liviu Ungur et al                             : ANISO software                          


 Your calculation uses the libint2 library for the computation of 2-el integrals
 For citations please refer to: http://libint.valeyev.net

 Your ORCA version has been built with support for libXC version: 6.2.2
 For citations please refer to: https://libxc.gitlab.io

 This ORCA versions uses:
   CBLAS   interface :  Fast vector & matrix operations
   LAPACKE interface :  Fast linear algebra routines
   SCALAPACK package :  Parallel linear algebra routines
   Shared memory     :  Shared parallel matrices
   BLAS/LAPACK       :  OpenBLAS 0.3.27  USE64BITINT DYNAMIC_ARCH NO_AFFINITY Zen SINGLE_THREADED
        Core in use  :  Zen
   Copyright (c) 2011-2014, The OpenBLAS Project




***************************************
The coordinates will be read from file: xtb_opt.xyz
***************************************


Your calculation utilizes the geometrical counterpoise correction gCP
Please cite in your paper:
H.Kruse, S. Grimme J.Chem.Phys., 136, (2012), 154101 
   

Your calculation utilizes the atom-pairwise dispersion correction
based on EEQ partial charges (D4)


================================================================================

----- Orbital basis set information -----
Your calculation utilizes the basis: def2-mTZVPP
   Stefan Grimme, Andreas Hansen, Sebastian Ehlert, and Jan-Michael Mewes 
   J. Chem. Phys. 154, 064103 (2021). DOI: 10.1063/5.0040021

----- AuxJ basis set information -----
Your calculation utilizes the auxiliary basis: def2/J
   F. Weigend, Phys. Chem. Chem. Phys. 8, 1057 (2006).

================================================================================
                                        WARNINGS
                       Please study these warnings very carefully!
================================================================================



WARNING: SCAN, rSCAN, or r2SCAN functional requested.
  ===> : libXC variant has now been activated.



================================================================================
                                       INPUT FILE
================================================================================
NAME = xtb_opt.inp
|  1> ! r2scan-3c def2/J RI DEFGRID2 scfconv7 ENGRAD tightSCF miniprint
|  2> * xyzfile 0 1 xtb_opt.xyz
|  3> 
|  4>                          ****END OF INPUT****
================================================================================

                     *******************************
                     * Energy+Gradient Calculation *
                     *******************************

---------------------------------
CARTESIAN COORDINATES (ANGSTROEM)
---------------------------------
  C      1.530789    1.193034    0.000019
  C      0.148558    1.236142   -0.000137
  C     -0.552820    0.028866   -0.000073
  C      0.179441   -1.163911   -0.000178
  N      1.495044   -1.194275    0.000040
  C      2.154928   -0.047846    0.000230
  C     -1.965344    0.003503   -0.000094
  N     -3.111144   -0.022963    0.000227
  H      2.112486    2.101317   -0.000164
  H     -0.386069    2.175166   -0.000362
  H     -0.323278   -2.122005   -0.000627
  H      3.233352   -0.132177    0.000218

----------------------------
CARTESIAN COORDINATES (A.U.)
----------------------------
  NO LB      ZA    FRAG     MASS         X           Y           Z
   0 C     6.0000    0    12.011    2.892773    2.254508    0.000036
   1 C     6.0000    0    12.011    0.280734    2.335970   -0.000259
   2 C     6.0000    0    12.011   -1.044678    0.054549   -0.000138
   3 C     6.0000    0    12.011    0.339095   -2.199473   -0.000336
   4 N     7.0000    0    14.007    2.825225   -2.256852    0.000075
   5 C     6.0000    0    12.011    4.072224   -0.090416    0.000434
   6 C     6.0000    0    12.011   -3.713961    0.006620   -0.000177
   7 N     7.0000    0    14.007   -5.879209   -0.043394    0.000429
   8 H     1.0000    0     1.008    3.992019    3.970913   -0.000311
   9 H     1.0000    0     1.008   -0.729564    4.110468   -0.000684
  10 H     1.0000    0     1.008   -0.610907   -4.010008   -0.001185
  11 H     1.0000    0     1.008    6.110149   -0.249778    0.000411

------------------------------------------------------------------------------
                   ___                                                        
                  /   \      - P O W E R E D   B Y -                         
                 /     \                                                     
                 |  |  |   _    _      __       _____    __    __             
                 |  |  |  | |  | |    /  \     |  _  \  |  |  /  |          
                  \  \/   | |  | |   /    \    | | | |  |  | /  /          
                 / \  \   | |__| |  /  /\  \   | |_| |  |  |/  /          
                |  |  |   |  __  | /  /__\  \  |    /   |      \           
                |  |  |   | |  | | |   __   |  |    \   |  |\   \          
                \     /   | |  | | |  |  |  |  | |\  \  |  | \   \       
                 \___/    |_|  |_| |__|  |__|  |_| \__\ |__|  \__/        
                                                                              
                      - O R C A' S   B I G   F R I E N D -                    
                                      &                                       
                       - I N T E G R A L  F E E D E R -                       
                                                                              
 v1 FN, 2020, v2 2021, v3 2022-2024                                           
------------------------------------------------------------------------------


----------------------
SHARK INTEGRAL PACKAGE
----------------------

Number of atoms                             ...     12
Number of basis functions                   ...    182
Number of shells                            ...     86
Maximum angular momentum                    ...      2
Integral batch strategy                     ... SHARK/LIBINT Hybrid
RI-J (if used) integral strategy            ... SPLIT-RIJ (Revised 2003 algorithm where possible)
Printlevel                                  ...      1
Contraction scheme used                     ... SEGMENTED contraction
Prescreening option                         ... SCHWARTZ
   Thresh                                   ... 3.000e-11
   Tcut                                     ... 1.000e-12
   Tpresel                                  ... 1.000e-12 
Coulomb Range Separation                    ... NOT USED
Exchange Range Separation                   ... NOT USED
Multipole approximations                    ... NOT USED
Finite Nucleus Model                        ... NOT USED
CABS basis                                  ... NOT available
Auxiliary Coulomb fitting basis             ... AVAILABLE
   # of basis functions in Aux-J            ...    436
   # of shells in Aux-J                     ...    140
   Maximum angular momentum in Aux-J        ...      4
Auxiliary J/K fitting basis                 ... NOT available
Auxiliary Correlation fitting basis         ... NOT available
Auxiliary 'external' fitting basis          ... NOT available

Checking pre-screening integrals            ... done (  0.0 sec) Dimension = 86
Check shell pair data                       ... done (  0.0 sec)
Shell pair information
Shell pair cut-off parameter TPreSel        ...   1.0e-12
Total number of shell pairs                 ...      3741
Shell pairs after pre-screening             ...      3445
Total number of primitive shell pairs       ...     14049
Primitive shell pairs kept                  ...      9396
          la=0 lb=0:   1034 shell pairs
          la=1 lb=0:   1252 shell pairs
          la=1 lb=1:    394 shell pairs
          la=2 lb=0:    443 shell pairs
          la=2 lb=1:    270 shell pairs
          la=2 lb=2:     52 shell pairs

Calculating one electron integrals          ... done (  0.0 sec)
Calculating RI/J V-Matrix + Cholesky decomp.... done (  0.0 sec)
Calculating Nuclear repulsion               ... done (  0.0 sec) ENN=    304.873303825256 Eh

Diagonalization of the overlap matrix:
Smallest eigenvalue                        ... 5.444e-05
Time for diagonalization                   ...    0.003 sec
Threshold for overlap eigenvalues          ... 1.000e-07
Number of eigenvalues below threshold      ... 0
Time for construction of square roots      ...    0.003 sec
Total time needed                          ...    0.007 sec

-------------------
DFT GRID GENERATION
-------------------

General Integration Accuracy     IntAcc      ... 4.388
Radial Grid Type                 RadialGrid  ... OptM3 with GC (2021)
Angular Grid (max. ang.)         AngularGrid ... 4 (Lebedev-302)
Angular grid pruning method      GridPruning ... 4 (adaptive)
Weight generation scheme         WeightScheme... mBecke (2022)
Basis function cutoff            BFCut       ... 1.0000e-11
Integration weight cutoff        WCut        ... 1.0000e-14
Partially contracted basis set               ... off
Rotationally invariant grid construction     ... off
Angular grids for H and He will be reduced by one unit

Total number of grid points                  ...    61175
Total number of batches                      ...      961
Average number of points per batch           ...       63
Average number of grid points per atom       ...     5098
Initializing property integral containers    ... done (  0.0 sec)

SHARK setup successfully completed in   0.6 seconds

Maximum memory used throughout the entire STARTUP-calculation: 28.7 MB
Occupation numbers will be reassigned to an Aufbau configuration
             **** ENERGY FILE WAS UPDATED (xtb_opt.en.tmp) ****
Finished Guess after   0.1 sec
Maximum memory used throughout the entire GUESS-calculation: 13.1 MB
----------------------------------------D-I-I-S--------------------------------------------
Iteration    Energy (Eh)           Delta-E    RMSDP     MaxDP     DIISErr   Damp  Time(sec)
-------------------------------------------------------------------------------------------
               ***  Starting incremental Fock matrix formation  ***
                              *** Initializing SOSCF ***
---------------------------------------S-O-S-C-F--------------------------------------
Iteration    Energy (Eh)           Delta-E    RMSDP     MaxDP     MaxGrad    Time(sec)
--------------------------------------------------------------------------------------
    1    -340.4382363624126810     0.00e+00  1.02e-05  2.05e-04  7.77e-05     1.3
               *** Restarting incremental Fock matrix formation ***
    2    -340.4382362200335592     1.42e-07  2.01e-05  4.05e-04  1.47e-04     1.3
    3    -340.4382336141071619     2.61e-06  1.53e-05  2.70e-04  5.15e-04     1.0
    4    -340.4382366016516244    -2.99e-06  6.02e-06  1.23e-04  7.06e-05     1.0
    5    -340.4382363977490513     2.04e-07  4.43e-06  9.32e-05  1.50e-04     1.0
    6    -340.4382366449531219    -2.47e-07  2.25e-06  3.83e-05  1.43e-05     1.0
                  *** Gradient check signals convergence ***

               *****************************************************
               *                     SUCCESS                       *
               *           SCF CONVERGED AFTER   6 CYCLES          *
               *****************************************************

             **** ENERGY FILE WAS UPDATED (xtb_opt.en.tmp) ****

----------------
TOTAL SCF ENERGY
----------------

Total Energy       :       -340.43823664495312 Eh           -9263.79538 eV

Components:
Nuclear Repulsion  :        304.87330382525602 Eh            8296.02436 eV
Electronic Energy  :       -645.31154047020914 Eh          -17559.81974 eV
One Electron Energy:      -1062.13231792238321 Eh          -28902.08972 eV
Two Electron Energy:        416.82077745217413 Eh           11342.26998 eV

Virial components:
Potential Energy   :       -679.66077691896726 Eh          -18494.50998 eV
Kinetic Energy     :        339.22254027401419 Eh            9230.71460 eV
Virial Ratio       :          2.00358377238127

DFT components:
N(Alpha)           :       26.999998328468 electrons
N(Beta)            :       26.999998328468 electrons
N(Total)           :       53.999996656937 electrons
E(X)               :      -45.934062923250 Eh       
E(C)               :       -1.755402549370 Eh       
E(XC)              :      -47.689465472620 Eh       

---------------
SCF CONVERGENCE
---------------

  Last Energy change         ...    2.4720e-07  Tolerance :   1.0000e-07
  Last MAX-Density change    ...    3.8316e-05  Tolerance :   1.0000e-07
  Last RMS-Density change    ...    2.2505e-06  Tolerance :   5.0000e-09
  Last DIIS Error            ...    2.9238e-04  Tolerance :   1.0000e-07
  Last Orbital Gradient      ...    1.4324e-05  Tolerance :   1.0000e-04
  Last Orbital Rotation      ...    7.3646e-05  Tolerance :   1.0000e-04


----------------
ORBITAL ENERGIES
----------------

  NO   OCC          E(Eh)            E(eV) 
   0   2.0000     -14.185116      -385.9966 
   1   2.0000     -14.168113      -385.5339 
   2   2.0000     -10.104284      -274.9515 
   3   2.0000     -10.103855      -274.9399 
   4   2.0000     -10.099006      -274.8079 
   5   2.0000     -10.091440      -274.6021 
   6   2.0000     -10.080688      -274.3095 
   7   2.0000     -10.076074      -274.1839 
   8   2.0000      -0.950132       -25.8544 
   9   2.0000      -0.890966       -24.2444 
  10   2.0000      -0.817120       -22.2350 
  11   2.0000      -0.774816       -21.0838 
  12   2.0000      -0.660402       -17.9705 
  13   2.0000      -0.635060       -17.2809 
  14   2.0000      -0.554420       -15.0865 
  15   2.0000      -0.504954       -13.7405 
  16   2.0000      -0.493112       -13.4183 
  17   2.0000      -0.440313       -11.9815 
  18   2.0000      -0.418111       -11.3774 
  19   2.0000      -0.407254       -11.0820 
  20   2.0000      -0.378851       -10.3091 
  21   2.0000      -0.355987        -9.6869 
  22   2.0000      -0.340444        -9.2640 
  23   2.0000      -0.328433        -8.9371 
  24   2.0000      -0.300373        -8.1736 
  25   2.0000      -0.271271        -7.3817 
  26   2.0000      -0.252525        -6.8716 
  27   0.0000      -0.099592        -2.7100 
  28   0.0000      -0.080379        -2.1872 
  29   0.0000      -0.006219        -0.1692 
  30   0.0000       0.028948         0.7877 
  31   0.0000       0.050255         1.3675 
  32   0.0000       0.092264         2.5106 
  33   0.0000       0.098771         2.6877 
  34   0.0000       0.105382         2.8676 
  35   0.0000       0.113814         3.0970 
  36   0.0000       0.119965         3.2644 
  37   0.0000       0.142982         3.8907 
*Only the first 10 virtual orbitals were printed.
Total SCF time: 0 days 0 hours 0 min 6 sec 
Finished LeanSCF after   8.1 sec

Maximum memory used throughout the entire LEANSCF-calculation: 19.2 MB


-------------------------------------------------------------------------------
                          DFT DISPERSION CORRECTION                            
                                                                               
                                DFTD4 V3.4.0                                   
-------------------------------------------------------------------------------
-------------------------   ----------------
Dispersion correction           -0.003886756
-------------------------   ----------------

------------------   -----------------
gCP correction             0.004881607
------------------   -----------------

-------------------------   --------------------
FINAL SINGLE POINT ENERGY      -340.437241794269
-------------------------   --------------------

------------------------------------------------------------------------------
                         ORCA SCF GRADIENT CALCULATION
------------------------------------------------------------------------------

Nuc. rep. gradient        (SHARK) ... done (  0.0 sec)
HCore & Overlap gradient  (SHARK) ... done (  0.1 sec)
Split-RIJ-J gradient      (SHARK) ... done (  1.0 sec)
XC gradient                       ... done (  3.6 sec)
Dispersion correction             ... done (  0.0 sec)

-------------------
DISPERSION GRADIENT
-------------------

   1   C   :    0.000052503    0.000040323    0.000000002
   2   C   :    0.000004166    0.000045236   -0.000000005
   3   C   :   -0.000027512   -0.000004823   -0.000000002
   4   C   :   -0.000000367   -0.000047411   -0.000000006
   5   N   :    0.000050796   -0.000051923    0.000000002
   6   C   :    0.000068413    0.000000084    0.000000009
   7   C   :   -0.000090338   -0.000002796   -0.000000002
   8   N   :   -0.000104260   -0.000001967    0.000000011
   9   H   :    0.000023405    0.000029837   -0.000000001
  10   H   :   -0.000007731    0.000037207   -0.000000005
  11   H   :   -0.000004090   -0.000038813   -0.000000009
  12   H   :    0.000035017   -0.000004953    0.000000005

Difference to translation invariance:
           :   -0.0000000000    0.0000000000   -0.0000000000

Difference to rotation invariance:
           :   -0.0000000000    0.0000000000   -0.0000000000

Norm of the Dispersion gradient    ...    0.0002100708
RMS gradient                       ...    0.0000350118
MAX gradient                       ...    0.0001042604
gCP correction                   ... done

------------------
CARTESIAN GRADIENT
------------------

   1   C   :    0.000921429   -0.000344611    0.000003878
   2   C   :   -0.000490852   -0.000879639   -0.000007217
   3   C   :   -0.002969825   -0.000823617    0.000021119
   4   C   :    0.007391737    0.001004187    0.000001030
   5   N   :   -0.006782114    0.012808834    0.000001411
   6   C   :   -0.004505375   -0.007047468    0.000019914
   7   C   :   -0.020812760   -0.000525629   -0.000009685
   8   N   :    0.028356752    0.000737093    0.000003196
   9   H   :   -0.002166517   -0.003309130   -0.000005525
  10   H   :    0.001526879   -0.002231040   -0.000004172
  11   H   :    0.004531870    0.002627438   -0.000011825
  12   H   :   -0.005001224   -0.002016419   -0.000012122

Difference to translation invariance:
           :    0.0000000000    0.0000000000    0.0000000000

Difference to rotation invariance:
           :    0.0000000227   -0.0000002050   -0.0000490847

Norm of the Cartesian gradient     ...    0.0408010442
RMS gradient                       ...    0.0068001740
MAX gradient                       ...    0.0283567522

-------
TIMINGS
-------

Total SCF gradient time     ....        4.750 sec

Densities                   ....       0.001 sec  (  0.0%)
One electron gradient       ....       0.130 sec  (  2.7%)
RI-J Coulomb gradient       ....       1.030 sec  ( 21.7%)
XC gradient                 ....       3.551 sec  ( 74.8%)

Maximum memory used throughout the entire SCFGRAD-calculation: 33.2 MB

------------------------------------------------------------------------------
                              ORCA PROPERTY CALCULATIONS
------------------------------------------------------------------------------

GBWName                                 ... xtb_opt.gbw
Number of atoms                         ...     12
Number of basis functions               ...    182
Max core memory                         ...   1024 MB

Electric properties:
Dipole moment                           ... YES
Quadrupole moment                       ...  NO
Static polarizability (Dipole/Dipole)   ...  NO
Static polarizability (Dipole/Quad.)    ...  NO
Static polarizability (Quad./Quad.)     ...  NO
Static polarizability (Velocity)        ...  NO

Atomic electric properties:
Dipole moment                           ...  NO
Quadrupole moment                       ...  NO
Static polarizability                   ...  NO

Choice of electric origin               ... Center of mass
Position of electric origin             ...    -0.000000    -0.000003    -0.000000

General magnetic properties:
Magnetizability                         ...  NO

EPR properties:
g-Tensor (aka g-matrix)                 ...  NO
Zero-Field splitting spin-orbit         ...  NO
Zero-field splitting spin-spin          ...  NO
Hyperfine couplings                     ...  NO (   0 nuclei)
Quadrupole couplings                    ...  NO (   0 nuclei)
Contact density                         ...  NO (   0 nuclei)

NMR properties:
Chemical shifts                         ...  NO (   0 nuclei)
Spin-rotation constants                 ...  NO (   0 nuclei)
Spin-spin couplings                     ...  NO (   0 nuclei,    0 pairs)

Choice of magnetic origin               ... GIAO
Position of magnetic origin             ...     0.000000     0.000000     0.000000

Properties with geometric perturbations:
SCF Hessian                             ...  NO
IR spectrum                             ...  NO
VCD spectrum                            ...  NO
X-ray spectroscopy properties:
SCF XES/XAS/RIXS spectra                ...  NO


-------------
DIPOLE MOMENT
-------------

Method             : SCF
Type of density    : Electron Density
Multiplicity       :   1
Irrep              :   0
Energy             :  -340.4382366449531219 Eh
Relativity type    : 
Basis              : AO
                                X                 Y                 Z
Electronic contribution:     -2.964679974      -1.117083540       0.000480565
Nuclear contribution   :      4.340948015       1.890578269      -0.000876552
                        -----------------------------------------
Total Dipole Moment    :      1.376268041       0.773494728      -0.000395987
                        -----------------------------------------
Magnitude (a.u.)       :      1.578736195
Magnitude (Debye)      :      4.012828502



--------------------
Rotational spectrum 
--------------------
 
Rotational constants in cm-1:             0.197120             0.053210             0.041900 
Rotational constants in MHz :          5909.497428          1595.193858          1256.120175 

Dipole components along the rotational axes: 
x,y,z [a.u.] :    -1.376268     0.773495    -0.000396 
x,y,z [Debye]:    -3.498194     1.966069    -0.001007 

 

Dipole moment calculation done in   0.4 sec 

Maximum memory used throughout the entire PROP-calculation: 11.5 MB

--------------------------------
SUGGESTED CITATIONS FOR THIS RUN
--------------------------------

Below you find a list of papers that are relevant to this ORCA run
We neither can nor want to force you to cite these papers, but we appreciate if you do
You receive ORCA, which is the product of decades of hard work by many enthusiastic individuals, for free
The only thing we kindly ask in return is that you cite our papers,
We deeply appreciate it, if you show your appreciation for ORCA by not just citing the generic ORCA reference.

Please note that relegating all ORCA citations to the supporting information does *not* help us.
SI sections are not indexed - citations you put there will not count into any citation statistics
But we need these citations in order to attract the funding resources that allow us to do what we are doing

Therefore, if you are a happy ORCA user, please consider citing a few of the papers listed below in the main body of your paper

In addition to the list printed below, the program has created the file xtb_opt.bibtex that contains the list in bibtex format
You can import this file easily into all common literature databanks and citation aid programs


List of essential papers. We consider these as the minimum necessary citations

  1. Neese,F.
     Software update: the ORCA program system, version 5.0
     WIRES Comput. Molec. Sci., 2022 12(1)e1606
     doi.org/10.1002/wcms.1606
  2. Grimme,S.; Hansen,A.; Ehlert,S.; Mewes,J.
     r2SCAN-3c: A 'Swiss army knife' composite electronic-structure method
     J. Chem. Phys., 2021 154 064103
     doi.org/10.1063/5.0040021

List of papers to cite with high priority. The work reported in these papers was absolutely
necessary for this run to complete.
Our perspective: the developers of density functionals and basis sets usually get cited in chemistry papers
Good! But without the algorithms to do something with them, the functionals or basis sets would not do anything.
Hence, in our opinion, the algorithm design and method developments papers are equally worthy of getting cited

  1. Neese,F.
     An improvement of the resolution of the identity approximation for the formation of the Coulomb matrix
     J. Comp. Chem., 2003 24(14)1740-1747
     doi.org/10.1002/jcc.10318
  2. Neese,F.
     The SHARK Integral Generation and Digestion System
     J. Comp. Chem., 2022  1-16
     doi.org/10.1002/jcc.26942
  3. Lehtola,S.; Steigemann,C.; Oliveira,M.; Marques,M.
     Recent developments in Libxc - A comprehensive library of functionals for density functional theory
     Software X, 2018 7 
     doi.org/10.1016/j.softx.2017.11.002
  4. Caldeweyher,E.; Bannwarth,C.; Grimme,S.
     Extension of the D3 dispersion coefficient model
     J. Chem. Phys., 2017 147 034112
     doi.org/10.1063/1.4993215
  5. Caldeweyher,E.; Ehlert,S.; Hansen,A.; Neugebauer,H.; Spicher,S.; Bannwarth,C.; Grimme,S.
     A generally applicable atomic-charge dependent London dispersion correction
     J. Chem. Phys., 2019 150 154122
     doi.org/10.1063/1.5090222
  6. Caldeweyher,E.; Mewes,J.; Ehlert,S.; Grimme,S.
     Extension and evaluation of the D4 London-dispersion model for periodic systems
     Phys. Chem. Chem. Phys., 2020 22(16)8499-8512
     doi.org/10.1039/D0CP00502A
  7. Wittmann,L.; Gordiy,I.; Friede,M.; Helmich-Paris,B.; Grimme,S.; Hansen,A.; Bursch,M.
     Extension of the D3 and D4 London Dispersion Corrections to the full Actinides Series
     Phys. Chem. Chem. Phys., 2024 26(32)21379-21394
     doi.org/https://doi.org/10.1039/D4CP01514B 

List of suggested additional citations. These are papers that are important in the 'surrounding' of 
of this run, or papers that preceded the highly important papers. If you like your results we are grateful for a citation.

  1. Neese,F.
     The ORCA program system
     WIRES Comput. Molec. Sci., 2012 2(1)73-78
     doi.org/10.1002/wcms.81
  2. Neese,F.
     Software update: the ORCA program system, version 4.0
     WIRES Comput. Molec. Sci., 2018 8(1)1-6
     doi.org/10.1002/wcms.1327
  3. Neese,F.; Wennmohs,F.; Becker,U.; Riplinger,C.
     The ORCA quantum chemistry program package
     J. Chem. Phys., 2020 152 Art. No. L224108
     doi.org/10.1063/5.0004608

List of optional additional citations

  1. Neese,F.
     Approximate second-order SCF convergence for spin unrestricted wavefunctions
     Chem. Phys. Lett., 2000 325(1-3)93-98
     doi.org/10.1016/s0009-2614(00)00662-x

Timings for individual modules:

Sum of individual times          ...       14.433 sec (=   0.241 min)
Startup calculation              ...        0.605 sec (=   0.010 min)   4.2 %
SCF iterations                   ...        8.169 sec (=   0.136 min)  56.6 %
Property calculations            ...        0.437 sec (=   0.007 min)   3.0 %
SCF Gradient evaluation          ...        5.223 sec (=   0.087 min)  36.2 %
                             ****ORCA TERMINATED NORMALLY****
TOTAL RUN TIME: 0 days 0 hours 0 minutes 15 seconds 383 msec
  ------------------------------------------------------------------------
          * successful ORCA run, taking over control again...

         :::::::::::::::::::::::::::::::::::::::::::::::::::::
         ::                  ORCA SUMMARY                   ::
         :::::::::::::::::::::::::::::::::::::::::::::::::::::
         :: total energy            -340.437241794269 Eh    ::
         :: gradient norm              0.040801044167 Eh/a0 ::
         :: HOMO-LUMO gap              0.000000000000 eV    ::
         :::::::::::::::::::::::::::::::::::::::::::::::::::::

      ----------------------------------------------------------- 
     |                       L-ANC optimizer                     |
      ----------------------------------------------------------- 
          low memory version by Sebastian Ehlert

          ...................................................
          :                      SETUP                      :
          :.................................................:
          :   energy convergence        0.5000000E-05 Eh    :
          :   grad. convergence         0.1000000E-02 Eh/a0 :
          :   optimization log               true           :
          :   writing optlog all                1     steps :
          :   Hessian reset                    20     steps :
          :   maximium step len.        1.0000000     a0    :
          :   LBFGS images                     20           :
          ...................................................
 * calculating model hessian...
Using Lindh-Hessian (1995)
 Shifting diagonal of input Hessian by   1.000000000000000E-002
 Lowest  eigenvalues of input Hessian
    0.000000    0.000000    0.000000    0.000000    0.000000    0.000000
    0.010426    0.024491    0.028867    0.035708    0.038462    0.066170
    0.076435    0.106796    0.111043    0.120480    0.127287    0.148616
 Highest eigenvalues
    1.534729    1.630253    1.933493    2.050891    2.136587    2.639189
 

........................................................................
.............................. CYCLE    1 ..............................
........................................................................
                         * ORCA takes the control...
  ------------------------------------------------------------------------

                                 *****************
                                 * O   R   C   A *
                                 *****************

                                            #,                                       
                                            ###                                      
                                            ####                                     
                                            #####                                    
                                            ######                                   
                                           ########,                                 
                                     ,,################,,,,,                         
                               ,,#################################,,                 
                          ,,##########################################,,             
                       ,#########################################, ''#####,          
                    ,#############################################,,   '####,        
                  ,##################################################,,,,####,       
                ,###########''''           ''''###############################       
              ,#####''   ,,,,##########,,,,          '''####'''          '####       
            ,##' ,,,,###########################,,,                        '##       
           ' ,,###''''                  '''############,,,                           
         ,,##''                                '''############,,,,        ,,,,,,###''
      ,#''                                            '''#######################'''  
     '                                                          ''''####''''         
             ,#######,   #######,   ,#######,      ##                                
            ,#'     '#,  ##    ##  ,#'     '#,    #''#        ,####,   ,####,        
            ##       ##  ##   ,#'  ##            #'  '#       #'       #'  '#        
            ##       ##  #######   ##           ,######,      #####,   #    #        
            '#,     ,#'  ##    ##  '#,     ,#' ,#      #,     #,   #   #,  ,#        
             '#######'   ##     ##  '#######'  #'      '#     '####' # '####'        



                #########################################################
                #                        -***-                          #
                #          Department of theory and spectroscopy        #
                #                                                       #
                #                      Frank Neese                      #
                #                                                       #
                #     Directorship, Architecture, Infrastructure        #
                #                    SHARK, DRIVERS                     #
                #        Core code/Algorithms in most modules           #
                #                                                       #
                #        Max Planck Institute fuer Kohlenforschung      #
                #                Kaiser Wilhelm Platz 1                 #
                #                 D-45470 Muelheim/Ruhr                 #
                #                      Germany                          #
                #                                                       #
                #                  All rights reserved                  #
                #                        -***-                          #
                #########################################################


                         Program Version 6.0.1  -  RELEASE   -


 With contributions from (in alphabetic order):
[Max-Planck-Institut fuer Kohlenforschung]                               
  Daniel Aravena         : Magnetic Suceptibility                        
  Michael Atanasov       : Ab Initio Ligand Field Theory (pilot matlab implementation)
  Alexander A. Auer      : GIAO ZORA, VPT2 properties, NMR spectrum      
  Ute Becker             : All parallelization in ORCA, NUMFREQ, NUMCALC 
  Giovanni Bistoni       : ED, misc. LED, open-shell LED, HFLD           
  Martin Brehm           : Molecular dynamics                            
  Dmytro Bykov           : pre 5.0 version of the SCF Hessian            
  Marcos Casanova-Páez   : Triplet and SCS-CIS(D). UHF-(DLPNO)-IP/EA/STEOM-CCSD. UHF-CVS-IP/STEOM-CCSD   
  Vijay G. Chilkuri      : MRCI spin determinant printing, contributions to CSF-ICE 
  Pauline Colinet        : FMM embedding                                 
  Dipayan Datta          : RHF DLPNO-CCSD density                        
  Achintya Kumar Dutta   : EOM-CC, STEOM-CC                              
  Nicolas Foglia         : Exact transition moments, OPA infrastructure, MCD improvements    
  Dmitry Ganyushin       : Spin-Orbit,Spin-Spin,Magnetic field MRCI      
  Miquel Garcia-Rates    : C-PCM and meta-GGA Hessian, CCSD/C-PCM, Gaussian charge scheme 
  Tiago L. C. Gouveia    : GS-ROHF, GS-ROCIS                             
  Yang Guo               : DLPNO-NEVPT2, F12-NEVPT2, CIM, IAO-localization        
  Andreas Hansen         : Spin unrestricted coupled pair/coupled cluster methods 
  Ingolf Harden          : AUTO-CI MPn and infrastructure                
  Benjamin Helmich-Paris : MC-RPA, TRAH-(SCF,CASSCF), AVAS, COSX integrals, SCF dyn. polar. 
  Lee Huntington         : MR-EOM, pCC                                   
  Robert Izsak           : Overlap fitted RIJCOSX, COSX-SCS-MP3, EOM     
  Riya Kayal             : Wick's Theorem for AUTO-CI, AUTO-CI UHF-CCSDT 
  Emily Kempfer          : AUTO-CI, RHF CISDT and CCSDT                  
  Christian Kollmar      : KDIIS, OOCD, Brueckner-CCSD(T), CCSD density, CASPT2, CASPT2-K, improved NEVPT2 
  Axel Koslowski         : Symmetry handling                             
  Simone Kossmann        : meta-GGA functionals, TD-DFT gradient, OOMP2, (MP2 Hessian; deprecated post 5.0) 
  Lucas Lang             : DCDCAS                                        
  Marvin Lechner         : AUTO-CI (C++ implementation), FIC-MRCC        
  Spencer Leger          : CASSCF response                               
  Dagmar Lenk            : GEPOL surface, SMD, ORCA-2-JSON               
  Dimitrios Liakos       : Extrapolation schemes; Compound Job, initial MDCI parallelization 
  Dimitrios Manganas     : Further ROCIS development; embedding schemes. LFT, Crystal Embedding 
  Dimitrios Pantazis     : SARC Basis sets                               
  Anastasios Papadopoulos: AUTO-CI, single reference methods and gradients 
  Taras Petrenko         : pre 6.0 DFT Hessian and TD-DFT gradient, (ASA, deprecated), ECA, 1-Electron XAS/XES, NRVS 
  Peter Pinski           : DLPNO-MP2, DLPNO-MP2 Gradient                 
  Christoph Reimann      : Effective Core Potentials                     
  Marius Retegan         : Local ZFS, SOC                                
  Christoph Riplinger    : Optimizer, TS searches, QM/MM, DLPNO-CCSD(T), (RO)-DLPNO pert. Triples 
  Michael Roemelt        : Original ROCIS implementation                 
  Masaaki Saitow         : Open-shell DLPNO-CCSD energy and density      
  Barbara Sandhoefer     : DKH picture change effects                    
  Kantharuban Sivalingam : CASSCF convergence/infrastructure, NEVPT2 and variants, FIC-MRCI 
  Bernardo de Souza      : ESD, SOC TD-DFT                               
  Georgi L. Stoychev     : AutoAux, RI-MP2 NMR, DLPNO-MP2 response, X2C  
  Van Anh Tran           : RI-MP2 g-tensors                              
  Willem Van den Heuvel  : Paramagnetic NMR                              
  Zikuan Wang            : NOTCH, Electric field optimization            
  Frank Wennmohs         : Technical directorship and infrastructure     
  Hang Xu                : AUTO-CI-Response properties                   
                                                                         
[FACCTs GmbH]                                                            
  Markus Bursch, Miquel Garcia-Rates, Christoph Riplinger, Bernardo de Souza, Georgi L. Stoychev 
                                                                 
  APM, Basis sets (HGBS, AHGBS, def-TZVP (Ac-Lr), def2-XVPD (La-Lu)), CI-OPT, improved COSX, DLPNO-Multilevel,           
  DOCKER, DRACO, updates on ESD, GOAT, IRC, LR-CPCM, MBIS, meta-GGA TD-DFT gradient, ML-optimized integration grids, 
  MM, NACMEs, nearIR, NEB, NEB-TS, NL-DFT gradient (VV10), 2- and 3-layer-ONIOM, interface openCOSMO-RS, QMMM,   
  Crystal-QMMM, SF, symmetry and pop. for TD-DFT, r2SCAN hybrids, SOLVATOR                                   
                                                                         
[Other institutions]                                                     
  V. Asgeirsson          : NEB                                           
  Christoph Bannwarth    : sTDA-DFT, sTD-DFT, PBEh-3c, B97-3c, D3        
  Sebastian Ehlert       : rSCAN, r2SCAN, r2SCAN-3c, D4, dhf basis sets  
  Marvin Friede          : D4 for Fr, Ra, Ac-Lr                          
  Lars Goerigk           : TD-DFT with DH, B97 family of functionals     
  Stefan Grimme          : VdW corrections, initial TS optimization, DFT functionals, gCP, sTDA/sTD-DF 
  Waldemar Hujo          : DFT-NL                                        
  H. Jonsson             : NEB                                           
  Holger Kruse           : gCP                                           
  Marcel Mueller         : wB97X-3c, vDZP basis set                      
  Hagen Neugebauer       : wr2SCAN                                       
  Tobias Risthaus        : range-separated hybrid DFT                    
  Lukas Wittmann         : regularized MP2, r2SCAN double-hybrids, wr2SCAN        
                                                                         
We gratefully acknowledge several colleagues who have allowed us to      
interface, adapt or use parts of their codes:                            
  Ed Valeev, F. Pavosevic, A. Kumar             : LibInt (2-el integral package), F12 methods 
  Garnet Chan, S. Sharma, J. Yang, R. Olivares  : DMRG                   
  Ulf Ekstrom                                   : XCFun DFT Library      
  Mihaly Kallay                                 : mrcc  (arbitrary order and MRCC methods)
  Frank Weinhold                                : gennbo (NPA and NBO analysis)           
  Simon Mueller                                 : openCOSMO-RS                            
  Christopher J. Cramer and Donald G. Truhlar   : smd solvation model                     
  S Lehtola, MJT Oliveira, MAL Marques          : LibXC Library                           
  Liviu Ungur et al                             : ANISO software                          


 Your calculation uses the libint2 library for the computation of 2-el integrals
 For citations please refer to: http://libint.valeyev.net

 Your ORCA version has been built with support for libXC version: 6.2.2
 For citations please refer to: https://libxc.gitlab.io

 This ORCA versions uses:
   CBLAS   interface :  Fast vector & matrix operations
   LAPACKE interface :  Fast linear algebra routines
   SCALAPACK package :  Parallel linear algebra routines
   Shared memory     :  Shared parallel matrices
   BLAS/LAPACK       :  OpenBLAS 0.3.27  USE64BITINT DYNAMIC_ARCH NO_AFFINITY Zen SINGLE_THREADED
        Core in use  :  Zen
   Copyright (c) 2011-2014, The OpenBLAS Project




***************************************
The coordinates will be read from file: xtb_opt.xyz
***************************************


Your calculation utilizes the geometrical counterpoise correction gCP
Please cite in your paper:
H.Kruse, S. Grimme J.Chem.Phys., 136, (2012), 154101 
   

Your calculation utilizes the atom-pairwise dispersion correction
based on EEQ partial charges (D4)


================================================================================

----- Orbital basis set information -----
Your calculation utilizes the basis: def2-mTZVPP
   Stefan Grimme, Andreas Hansen, Sebastian Ehlert, and Jan-Michael Mewes 
   J. Chem. Phys. 154, 064103 (2021). DOI: 10.1063/5.0040021

----- AuxJ basis set information -----
Your calculation utilizes the auxiliary basis: def2/J
   F. Weigend, Phys. Chem. Chem. Phys. 8, 1057 (2006).

================================================================================
                                        WARNINGS
                       Please study these warnings very carefully!
================================================================================

WARNING: Old DensityContainer found on disk!
         Will remove this file - 
         If you want to keep old densities, please start your calculation with a different basename. 



WARNING: SCAN, rSCAN, or r2SCAN functional requested.
  ===> : libXC variant has now been activated.



================================================================================
                                       INPUT FILE
================================================================================
NAME = xtb_opt.inp
|  1> ! r2scan-3c def2/J RI DEFGRID2 scfconv7 ENGRAD tightSCF miniprint
|  2> * xyzfile 0 1 xtb_opt.xyz
|  3> 
|  4>                          ****END OF INPUT****
================================================================================

                     *******************************
                     * Energy+Gradient Calculation *
                     *******************************

---------------------------------
CARTESIAN COORDINATES (ANGSTROEM)
---------------------------------
  C      1.534938    1.194511   -0.000100
  C      0.150578    1.236506   -0.000126
  C     -0.552507    0.027338   -0.000085
  C      0.177810   -1.170551   -0.000192
  N      1.502949   -1.204736   -0.000106
  C      2.164446   -0.047401   -0.000017
  C     -1.971410    0.003296    0.000526
  N     -3.130859   -0.022858   -0.000466
  H      2.117353    2.107630   -0.000107
  H     -0.386868    2.177524   -0.000151
  H     -0.339440   -2.126414   -0.000314
  H      3.248957   -0.119993    0.000236

----------------------------
CARTESIAN COORDINATES (A.U.)
----------------------------
  NO LB      ZA    FRAG     MASS         X           Y           Z
   0 C     6.0000    0    12.011    2.900613    2.257298   -0.000189
   1 C     6.0000    0    12.011    0.284551    2.336657   -0.000238
   2 C     6.0000    0    12.011   -1.044087    0.051661   -0.000160
   3 C     6.0000    0    12.011    0.336012   -2.212021   -0.000362
   4 N     7.0000    0    14.007    2.840161   -2.276621   -0.000201
   5 C     6.0000    0    12.011    4.090211   -0.089575   -0.000032
   6 C     6.0000    0    12.011   -3.725425    0.006228    0.000993
   7 N     7.0000    0    14.007   -5.916466   -0.043195   -0.000881
   8 H     1.0000    0     1.008    4.001217    3.982843   -0.000202
   9 H     1.0000    0     1.008   -0.731075    4.114924   -0.000285
  10 H     1.0000    0     1.008   -0.641449   -4.018340   -0.000593
  11 H     1.0000    0     1.008    6.139640   -0.226753    0.000446

------------------------------------------------------------------------------
                   ___                                                        
                  /   \      - P O W E R E D   B Y -                         
                 /     \                                                     
                 |  |  |   _    _      __       _____    __    __             
                 |  |  |  | |  | |    /  \     |  _  \  |  |  /  |          
                  \  \/   | |  | |   /    \    | | | |  |  | /  /          
                 / \  \   | |__| |  /  /\  \   | |_| |  |  |/  /          
                |  |  |   |  __  | /  /__\  \  |    /   |      \           
                |  |  |   | |  | | |   __   |  |    \   |  |\   \          
                \     /   | |  | | |  |  |  |  | |\  \  |  | \   \       
                 \___/    |_|  |_| |__|  |__|  |_| \__\ |__|  \__/        
                                                                              
                      - O R C A' S   B I G   F R I E N D -                    
                                      &                                       
                       - I N T E G R A L  F E E D E R -                       
                                                                              
 v1 FN, 2020, v2 2021, v3 2022-2024                                           
------------------------------------------------------------------------------


----------------------
SHARK INTEGRAL PACKAGE
----------------------

Number of atoms                             ...     12
Number of basis functions                   ...    182
Number of shells                            ...     86
Maximum angular momentum                    ...      2
Integral batch strategy                     ... SHARK/LIBINT Hybrid
RI-J (if used) integral strategy            ... SPLIT-RIJ (Revised 2003 algorithm where possible)
Printlevel                                  ...      1
Contraction scheme used                     ... SEGMENTED contraction
Prescreening option                         ... SCHWARTZ
   Thresh                                   ... 3.000e-11
   Tcut                                     ... 1.000e-12
   Tpresel                                  ... 1.000e-12 
Coulomb Range Separation                    ... NOT USED
Exchange Range Separation                   ... NOT USED
Multipole approximations                    ... NOT USED
Finite Nucleus Model                        ... NOT USED
CABS basis                                  ... NOT available
Auxiliary Coulomb fitting basis             ... AVAILABLE
   # of basis functions in Aux-J            ...    436
   # of shells in Aux-J                     ...    140
   Maximum angular momentum in Aux-J        ...      4
Auxiliary J/K fitting basis                 ... NOT available
Auxiliary Correlation fitting basis         ... NOT available
Auxiliary 'external' fitting basis          ... NOT available

Checking pre-screening integrals            ... done (  0.0 sec) Dimension = 86
Check shell pair data                       ... done (  0.0 sec)
Shell pair information
Shell pair cut-off parameter TPreSel        ...   1.0e-12
Total number of shell pairs                 ...      3741
Shell pairs after pre-screening             ...      3444
Total number of primitive shell pairs       ...     14049
Primitive shell pairs kept                  ...      9389
          la=0 lb=0:   1033 shell pairs
          la=1 lb=0:   1252 shell pairs
          la=1 lb=1:    394 shell pairs
          la=2 lb=0:    443 shell pairs
          la=2 lb=1:    270 shell pairs
          la=2 lb=2:     52 shell pairs

Calculating one electron integrals          ... done (  0.0 sec)
Calculating RI/J V-Matrix + Cholesky decomp.... done (  0.0 sec)
Calculating Nuclear repulsion               ... done (  0.0 sec) ENN=    303.456082224237 Eh

Diagonalization of the overlap matrix:
Smallest eigenvalue                        ... 5.722e-05
Time for diagonalization                   ...    0.003 sec
Threshold for overlap eigenvalues          ... 1.000e-07
Number of eigenvalues below threshold      ... 0
Time for construction of square roots      ...    0.003 sec
Total time needed                          ...    0.007 sec

-------------------
DFT GRID GENERATION
-------------------

General Integration Accuracy     IntAcc      ... 4.388
Radial Grid Type                 RadialGrid  ... OptM3 with GC (2021)
Angular Grid (max. ang.)         AngularGrid ... 4 (Lebedev-302)
Angular grid pruning method      GridPruning ... 4 (adaptive)
Weight generation scheme         WeightScheme... mBecke (2022)
Basis function cutoff            BFCut       ... 1.0000e-11
Integration weight cutoff        WCut        ... 1.0000e-14
Partially contracted basis set               ... off
Rotationally invariant grid construction     ... off
Angular grids for H and He will be reduced by one unit

Total number of grid points                  ...    61178
Total number of batches                      ...      961
Average number of points per batch           ...       63
Average number of grid points per atom       ...     5098
Initializing property integral containers    ... done (  0.0 sec)

SHARK setup successfully completed in   0.6 seconds

Maximum memory used throughout the entire STARTUP-calculation: 28.7 MB
Occupation numbers will be reassigned to an Aufbau configuration
             **** ENERGY FILE WAS UPDATED (xtb_opt.en.tmp) ****
Finished Guess after   0.1 sec
Maximum memory used throughout the entire GUESS-calculation: 13.1 MB
----------------------------------------D-I-I-S--------------------------------------------
Iteration    Energy (Eh)           Delta-E    RMSDP     MaxDP     DIISErr   Damp  Time(sec)
-------------------------------------------------------------------------------------------
               ***  Starting incremental Fock matrix formation  ***
    1    -340.4388493650210989     0.00e+00  1.12e-04  3.87e-03  7.10e-03  0.700   1.3
    2    -340.4389308480627392    -8.15e-05  9.42e-05  3.20e-03  4.31e-03  0.700   1.0
                               ***Turning on AO-DIIS***
                              *** Initializing SOSCF ***
---------------------------------------S-O-S-C-F--------------------------------------
Iteration    Energy (Eh)           Delta-E    RMSDP     MaxDP     MaxGrad    Time(sec)
--------------------------------------------------------------------------------------
    3    -340.4389824635508717    -5.16e-05  2.21e-04  6.73e-03  2.50e-03     1.1
               *** Restarting incremental Fock matrix formation ***
    4    -340.4390922267264727    -1.10e-04  5.95e-05  1.30e-03  6.65e-04     1.3
    5    -340.4390670280243398     2.52e-05  4.46e-05  1.02e-03  2.21e-03     1.0
    6    -340.4390952841397961    -2.83e-05  1.20e-05  2.78e-04  7.63e-05     1.0
    7    -340.4390946512043570     6.33e-07  8.36e-06  1.96e-04  1.79e-04     1.0
    8    -340.4390954059297769    -7.55e-07  2.08e-06  3.45e-05  1.23e-05     1.0
                  *** Gradient check signals convergence ***

               *****************************************************
               *                     SUCCESS                       *
               *           SCF CONVERGED AFTER   8 CYCLES          *
               *****************************************************

             **** ENERGY FILE WAS UPDATED (xtb_opt.en.tmp) ****

----------------
TOTAL SCF ENERGY
----------------

Total Energy       :       -340.43909540592978 Eh           -9263.81875 eV

Components:
Nuclear Repulsion  :        303.45608222423715 Eh            8257.45980 eV
Electronic Energy  :       -643.89517763016693 Eh          -17521.27855 eV
One Electron Energy:      -1059.33241682203152 Eh          -28825.90054 eV
Two Electron Energy:        415.43723919186459 Eh           11304.62199 eV

Virial components:
Potential Energy   :       -679.47044724519060 Eh          -18489.33085 eV
Kinetic Energy     :        339.03135183926076 Eh            9225.51210 eV
Virial Ratio       :          2.00415225187592

DFT components:
N(Alpha)           :       26.999998046740 electrons
N(Beta)            :       26.999998046740 electrons
N(Total)           :       53.999996093479 electrons
E(X)               :      -45.890725037650 Eh       
E(C)               :       -1.753579213256 Eh       
E(XC)              :      -47.644304250906 Eh       

---------------
SCF CONVERGENCE
---------------

  Last Energy change         ...    7.5473e-07  Tolerance :   1.0000e-07
  Last MAX-Density change    ...    3.4525e-05  Tolerance :   1.0000e-07
  Last RMS-Density change    ...    2.0841e-06  Tolerance :   5.0000e-09
  Last DIIS Error            ...    2.5041e-03  Tolerance :   1.0000e-07
  Last Orbital Gradient      ...    1.2320e-05  Tolerance :   1.0000e-04
  Last Orbital Rotation      ...    6.6308e-05  Tolerance :   1.0000e-04


----------------
ORBITAL ENERGIES
----------------

  NO   OCC          E(Eh)            E(eV) 
   0   2.0000     -14.187956      -386.0739 
   1   2.0000     -14.171905      -385.6371 
   2   2.0000     -10.106753      -275.0187 
   3   2.0000     -10.105894      -274.9954 
   4   2.0000     -10.101696      -274.8811 
   5   2.0000     -10.092687      -274.6360 
   6   2.0000     -10.084869      -274.4232 
   7   2.0000     -10.077720      -274.2287 
   8   2.0000      -0.945912       -25.7396 
   9   2.0000      -0.886415       -24.1206 
  10   2.0000      -0.815708       -22.1965 
  11   2.0000      -0.773721       -21.0540 
  12   2.0000      -0.658451       -17.9174 
  13   2.0000      -0.634777       -17.2732 
  14   2.0000      -0.553185       -15.0529 
  15   2.0000      -0.504204       -13.7201 
  16   2.0000      -0.492076       -13.3901 
  17   2.0000      -0.439968       -11.9721 
  18   2.0000      -0.415960       -11.3189 
  19   2.0000      -0.406403       -11.0588 
  20   2.0000      -0.378958       -10.3120 
  21   2.0000      -0.353289        -9.6135 
  22   2.0000      -0.341508        -9.2929 
  23   2.0000      -0.326066        -8.8727 
  24   2.0000      -0.299683        -8.1548 
  25   2.0000      -0.270812        -7.3692 
  26   2.0000      -0.253920        -6.9095 
  27   0.0000      -0.101187        -2.7534 
  28   0.0000      -0.081876        -2.2280 
  29   0.0000      -0.011278        -0.3069 
  30   0.0000       0.024593         0.6692 
  31   0.0000       0.048805         1.3280 
  32   0.0000       0.091146         2.4802 
  33   0.0000       0.098442         2.6787 
  34   0.0000       0.102237         2.7820 
  35   0.0000       0.112232         3.0540 
  36   0.0000       0.119599         3.2545 
  37   0.0000       0.141787         3.8582 
*Only the first 10 virtual orbitals were printed.
Total SCF time: 0 days 0 hours 0 min 9 sec 
Finished LeanSCF after  10.1 sec

Maximum memory used throughout the entire LEANSCF-calculation: 19.2 MB


-------------------------------------------------------------------------------
                          DFT DISPERSION CORRECTION                            
                                                                               
                                DFTD4 V3.4.0                                   
-------------------------------------------------------------------------------
-------------------------   ----------------
Dispersion correction           -0.003875527
-------------------------   ----------------

------------------   -----------------
gCP correction             0.004800163
------------------   -----------------

-------------------------   --------------------
FINAL SINGLE POINT ENERGY      -340.438170769665
-------------------------   --------------------

------------------------------------------------------------------------------
                         ORCA SCF GRADIENT CALCULATION
------------------------------------------------------------------------------

Nuc. rep. gradient        (SHARK) ... done (  0.0 sec)
HCore & Overlap gradient  (SHARK) ... done (  0.1 sec)
Split-RIJ-J gradient      (SHARK) ... done (  1.0 sec)
XC gradient                       ... done (  3.5 sec)
Dispersion correction             ... done (  0.0 sec)

-------------------
DISPERSION GRADIENT
-------------------

   1   C   :    0.000052455    0.000040537   -0.000000002
   2   C   :    0.000004294    0.000045592    0.000000000
   3   C   :   -0.000027567   -0.000004817    0.000000000
   4   C   :   -0.000000344   -0.000047955   -0.000000002
   5   N   :    0.000050765   -0.000052307   -0.000000003
   6   C   :    0.000068522    0.000000108    0.000000001
   7   C   :   -0.000090530   -0.000002742    0.000000018
   8   N   :   -0.000103968   -0.000001896   -0.000000010
   9   H   :    0.000023302    0.000029869   -0.000000001
  10   H   :   -0.000007692    0.000037254   -0.000000001
  11   H   :   -0.000004361   -0.000038873   -0.000000004
  12   H   :    0.000035123   -0.000004770    0.000000004

Difference to translation invariance:
           :    0.0000000000   -0.0000000000   -0.0000000000

Difference to rotation invariance:
           :    0.0000000000    0.0000000000   -0.0000000000

Norm of the Dispersion gradient    ...    0.0002103993
RMS gradient                       ...    0.0000350666
MAX gradient                       ...    0.0001039678
gCP correction                   ... done

------------------
CARTESIAN GRADIENT
------------------

   1   C   :    0.000328767    0.000261903    0.000011312
   2   C   :   -0.000051061   -0.000685438   -0.000003183
   3   C   :   -0.001267100   -0.000243969   -0.000065784
   4   C   :    0.001545040   -0.000194406   -0.000007683
   5   N   :   -0.002333285    0.004672691    0.000013318
   6   C   :   -0.000450840   -0.002377972   -0.000009290
   7   C   :    0.006211303    0.000069197    0.000124799
   8   N   :   -0.004052501    0.000008825   -0.000057590
   9   H   :   -0.000531171   -0.000664749    0.000000474
  10   H   :    0.000329185   -0.000371308   -0.000006003
  11   H   :    0.001268573    0.000252139   -0.000004331
  12   H   :   -0.000996911   -0.000726914    0.000003961

Difference to translation invariance:
           :    0.0000000000   -0.0000000000    0.0000000000

Difference to rotation invariance:
           :   -0.0000000258    0.0000016189   -0.0000975508

Norm of the Cartesian gradient     ...    0.0098525327
RMS gradient                       ...    0.0016420888
MAX gradient                       ...    0.0062113029

-------
TIMINGS
-------

Total SCF gradient time     ....        4.623 sec

Densities                   ....       0.000 sec  (  0.0%)
One electron gradient       ....       0.124 sec  (  2.7%)
RI-J Coulomb gradient       ....       0.966 sec  ( 20.9%)
XC gradient                 ....       3.494 sec  ( 75.6%)

Maximum memory used throughout the entire SCFGRAD-calculation: 33.2 MB

------------------------------------------------------------------------------
                              ORCA PROPERTY CALCULATIONS
------------------------------------------------------------------------------

GBWName                                 ... xtb_opt.gbw
Number of atoms                         ...     12
Number of basis functions               ...    182
Max core memory                         ...   1024 MB

Electric properties:
Dipole moment                           ... YES
Quadrupole moment                       ...  NO
Static polarizability (Dipole/Dipole)   ...  NO
Static polarizability (Dipole/Quad.)    ...  NO
Static polarizability (Quad./Quad.)     ...  NO
Static polarizability (Velocity)        ...  NO

Atomic electric properties:
Dipole moment                           ...  NO
Quadrupole moment                       ...  NO
Static polarizability                   ...  NO

Choice of electric origin               ... Center of mass
Position of electric origin             ...    -0.001129    -0.003663    -0.000150

General magnetic properties:
Magnetizability                         ...  NO

EPR properties:
g-Tensor (aka g-matrix)                 ...  NO
Zero-Field splitting spin-orbit         ...  NO
Zero-field splitting spin-spin          ...  NO
Hyperfine couplings                     ...  NO (   0 nuclei)
Quadrupole couplings                    ...  NO (   0 nuclei)
Contact density                         ...  NO (   0 nuclei)

NMR properties:
Chemical shifts                         ...  NO (   0 nuclei)
Spin-rotation constants                 ...  NO (   0 nuclei)
Spin-spin couplings                     ...  NO (   0 nuclei,    0 pairs)

Choice of magnetic origin               ... GIAO
Position of magnetic origin             ...     0.000000     0.000000     0.000000

Properties with geometric perturbations:
SCF Hessian                             ...  NO
IR spectrum                             ...  NO
VCD spectrum                            ...  NO
X-ray spectroscopy properties:
SCF XES/XAS/RIXS spectra                ...  NO


-------------
DIPOLE MOMENT
-------------

Method             : SCF
Type of density    : Electron Density
Multiplicity       :   1
Irrep              :   0
Energy             :  -340.4390954059297769 Eh
Relativity type    : 
Basis              : AO
                                X                 Y                 Z
Electronic contribution:     -2.965759415      -1.131689914       0.000380327
Nuclear contribution   :      4.346424534       1.913239121      -0.000018457
                        -----------------------------------------
Total Dipole Moment    :      1.380665119       0.781549207       0.000361871
                        -----------------------------------------
Magnitude (a.u.)       :      1.586523074
Magnitude (Debye)      :      4.032621176



--------------------
Rotational spectrum 
--------------------
 
Rotational constants in cm-1:             0.195652             0.052691             0.041512 
Rotational constants in MHz :          5865.486482          1579.640699          1244.486663 

Dipole components along the rotational axes: 
x,y,z [a.u.] :     1.380301    -0.782193     0.000331 
x,y,z [Debye]:     3.508445    -1.988176     0.000842 

 

Dipole moment calculation done in   0.4 sec 

Maximum memory used throughout the entire PROP-calculation: 11.5 MB

--------------------------------
SUGGESTED CITATIONS FOR THIS RUN
--------------------------------

Below you find a list of papers that are relevant to this ORCA run
We neither can nor want to force you to cite these papers, but we appreciate if you do
You receive ORCA, which is the product of decades of hard work by many enthusiastic individuals, for free
The only thing we kindly ask in return is that you cite our papers,
We deeply appreciate it, if you show your appreciation for ORCA by not just citing the generic ORCA reference.

Please note that relegating all ORCA citations to the supporting information does *not* help us.
[...]
--------------------------------------------------------------------------------------
    1    -340.4391409084660722     0.00e+00  8.16e-07  1.13e-05  4.80e-06     1.3
               *** Restarting incremental Fock matrix formation ***
    2    -340.4391409083916074     7.45e-11  1.33e-06  2.55e-05  8.12e-06     1.2
                  *** Gradient check signals convergence ***

               *****************************************************
               *                     SUCCESS                       *
               *           SCF CONVERGED AFTER   2 CYCLES          *
               *****************************************************

             **** ENERGY FILE WAS UPDATED (xtb_opt.en.tmp) ****

----------------
TOTAL SCF ENERGY
----------------

Total Energy       :       -340.43914090839161 Eh           -9263.81999 eV

Components:
Nuclear Repulsion  :        303.16865050193354 Eh            8249.63838 eV
Electronic Energy  :       -643.60779141032526 Eh          -17513.45837 eV
One Electron Energy:      -1058.76336387676724 Eh          -28810.41582 eV
Two Electron Energy:        415.15557246644204 Eh           11296.95745 eV

Virial components:
Potential Energy   :       -679.44110846810031 Eh          -18488.53250 eV
Kinetic Energy     :        339.00196755970876 Eh            9224.71251 eV
Virial Ratio       :          2.00423942480048

DFT components:
N(Alpha)           :       26.999997741411 electrons
N(Beta)            :       26.999997741411 electrons
N(Total)           :       53.999995482822 electrons
E(X)               :      -45.883581217733 Eh       
E(C)               :       -1.753159210876 Eh       
E(XC)              :      -47.636740428609 Eh       

---------------
SCF CONVERGENCE
---------------

  Last Energy change         ...   -7.4465e-11  Tolerance :   1.0000e-07
  Last MAX-Density change    ...    2.5500e-05  Tolerance :   1.0000e-07
  Last RMS-Density change    ...    1.3278e-06  Tolerance :   5.0000e-09
  Last DIIS Error            ...    1.4509e-05  Tolerance :   1.0000e-07
  Last Orbital Gradient      ...    8.1190e-06  Tolerance :   1.0000e-04
  Last Orbital Rotation      ...    4.0914e-05  Tolerance :   1.0000e-04


----------------
ORBITAL ENERGIES
----------------

  NO   OCC          E(Eh)            E(eV) 
   0   2.0000     -14.189273      -386.1097 
   1   2.0000     -14.171629      -385.6296 
   2   2.0000     -10.107303      -275.0337 
   3   2.0000     -10.106420      -275.0097 
   4   2.0000     -10.102278      -274.8970 
   5   2.0000     -10.093097      -274.6471 
   6   2.0000     -10.084778      -274.4207 
   7   2.0000     -10.078037      -274.2373 
   8   2.0000      -0.944391       -25.6982 
   9   2.0000      -0.886983       -24.1360 
  10   2.0000      -0.815674       -22.1956 
  11   2.0000      -0.773204       -21.0400 
  12   2.0000      -0.657298       -17.8860 
  13   2.0000      -0.634995       -17.2791 
  14   2.0000      -0.552650       -15.0384 
  15   2.0000      -0.503714       -13.7068 
  16   2.0000      -0.491636       -13.3781 
  17   2.0000      -0.439420       -11.9572 
  18   2.0000      -0.415289       -11.3006 
  19   2.0000      -0.406525       -11.0621 
  20   2.0000      -0.378345       -10.2953 
  21   2.0000      -0.353127        -9.6091 
  22   2.0000      -0.341483        -9.2922 
  23   2.0000      -0.326611        -8.8876 
  24   2.0000      -0.299705        -8.1554 
  25   2.0000      -0.270867        -7.3707 
  26   2.0000      -0.255174        -6.9436 
  27   0.0000      -0.101264        -2.7555 
  28   0.0000      -0.082324        -2.2402 
  29   0.0000      -0.010892        -0.2964 
  30   0.0000       0.024281         0.6607 
  31   0.0000       0.048283         1.3138 
  32   0.0000       0.090851         2.4722 
  33   0.0000       0.098225         2.6728 
  34   0.0000       0.101736         2.7684 
  35   0.0000       0.111874         3.0442 
  36   0.0000       0.119677         3.2566 
  37   0.0000       0.141765         3.8576 
*Only the first 10 virtual orbitals were printed.
Total SCF time: 0 days 0 hours 0 min 2 sec 
Finished LeanSCF after   3.3 sec

Maximum memory used throughout the entire LEANSCF-calculation: 19.2 MB


-------------------------------------------------------------------------------
                          DFT DISPERSION CORRECTION                            
                                                                               
                                DFTD4 V3.4.0                                   
-------------------------------------------------------------------------------
-------------------------   ----------------
Dispersion correction           -0.003873727
-------------------------   ----------------

------------------   -----------------
gCP correction             0.004767741
------------------   -----------------

-------------------------   --------------------
FINAL SINGLE POINT ENERGY      -340.438246894916
-------------------------   --------------------

------------------------------------------------------------------------------
                         ORCA SCF GRADIENT CALCULATION
------------------------------------------------------------------------------

Nuc. rep. gradient        (SHARK) ... done (  0.0 sec)
HCore & Overlap gradient  (SHARK) ... done (  0.1 sec)
Split-RIJ-J gradient      (SHARK) ... done (  1.0 sec)
XC gradient                       ... done (  3.1 sec)
Dispersion correction             ... done (  0.0 sec)

-------------------
DISPERSION GRADIENT
-------------------

   1   C   :    0.000052492    0.000040596    0.000000005
   2   C   :    0.000004264    0.000045807   -0.000000005
   3   C   :   -0.000027614   -0.000004747   -0.000000008
   4   C   :   -0.000000362   -0.000047997   -0.000000006
   5   N   :    0.000050891   -0.000052624    0.000000003
   6   C   :    0.000068558    0.000000102    0.000000007
   7   C   :   -0.000090544   -0.000002777   -0.000000012
   8   N   :   -0.000103882   -0.000002034    0.000000014
   9   H   :    0.000023293    0.000029845    0.000000003
  10   H   :   -0.000007696    0.000037312   -0.000000003
  11   H   :   -0.000004542   -0.000038797   -0.000000002
  12   H   :    0.000035141   -0.000004687    0.000000003

Difference to translation invariance:
           :    0.0000000000   -0.0000000000    0.0000000000

Difference to rotation invariance:
           :   -0.0000000000   -0.0000000000   -0.0000000000

Norm of the Dispersion gradient    ...    0.0002105636
RMS gradient                       ...    0.0000350939
MAX gradient                       ...    0.0001038819
gCP correction                   ... done

------------------
CARTESIAN GRADIENT
------------------

   1   C   :    0.000017125   -0.000013211    0.000003325
   2   C   :   -0.000015400   -0.000023309    0.000005496
   3   C   :    0.000017624   -0.000016124    0.000012519
   4   C   :   -0.000040356    0.000038584    0.000002448
   5   N   :   -0.000009128    0.000027063   -0.000003904
   6   C   :   -0.000001704    0.000008072    0.000009779
   7   C   :    0.000211599   -0.000036344   -0.000055510
   8   N   :   -0.000176674    0.000053961    0.000030582
   9   H   :   -0.000033477    0.000000242   -0.000004226
  10   H   :    0.000013132   -0.000023058    0.000001627
  11   H   :    0.000032381    0.000001334    0.000003206
  12   H   :   -0.000015122   -0.000017210   -0.000005342

Difference to translation invariance:
           :   -0.0000000000   -0.0000000000   -0.0000000000

Difference to rotation invariance:
           :   -0.0000000189   -0.0000011837   -0.0000954392

Norm of the Cartesian gradient     ...    0.0003063189
RMS gradient                       ...    0.0000510532
MAX gradient                       ...    0.0002115993

-------
TIMINGS
-------

Total SCF gradient time     ....        4.268 sec

Densities                   ....       0.000 sec  (  0.0%)
One electron gradient       ....       0.125 sec  (  2.9%)
RI-J Coulomb gradient       ....       0.963 sec  ( 22.6%)
XC gradient                 ....       3.137 sec  ( 73.5%)

Maximum memory used throughout the entire SCFGRAD-calculation: 33.2 MB

------------------------------------------------------------------------------
                              ORCA PROPERTY CALCULATIONS
------------------------------------------------------------------------------

GBWName                                 ... xtb_opt.gbw
Number of atoms                         ...     12
Number of basis functions               ...    182
Max core memory                         ...   1024 MB

Electric properties:
Dipole moment                           ... YES
Quadrupole moment                       ...  NO
Static polarizability (Dipole/Dipole)   ...  NO
Static polarizability (Dipole/Quad.)    ...  NO
Static polarizability (Quad./Quad.)     ...  NO
Static polarizability (Velocity)        ...  NO

Atomic electric properties:
Dipole moment                           ...  NO
Quadrupole moment                       ...  NO
Static polarizability                   ...  NO

Choice of electric origin               ... Center of mass
Position of electric origin             ...     0.000029    -0.006467    -0.000141

General magnetic properties:
Magnetizability                         ...  NO

EPR properties:
g-Tensor (aka g-matrix)                 ...  NO
Zero-Field splitting spin-orbit         ...  NO
Zero-field splitting spin-spin          ...  NO
Hyperfine couplings                     ...  NO (   0 nuclei)
Quadrupole couplings                    ...  NO (   0 nuclei)
Contact density                         ...  NO (   0 nuclei)

NMR properties:
Chemical shifts                         ...  NO (   0 nuclei)
Spin-rotation constants                 ...  NO (   0 nuclei)
Spin-spin couplings                     ...  NO (   0 nuclei,    0 pairs)

Choice of magnetic origin               ... GIAO
Position of magnetic origin             ...     0.000000     0.000000     0.000000

Properties with geometric perturbations:
SCF Hessian                             ...  NO
IR spectrum                             ...  NO
VCD spectrum                            ...  NO
X-ray spectroscopy properties:
SCF XES/XAS/RIXS spectra                ...  NO


-------------
DIPOLE MOMENT
-------------

Method             : SCF
Type of density    : Electron Density
Multiplicity       :   1
Irrep              :   0
Energy             :  -340.4391409083916074 Eh
Relativity type    : 
Basis              : AO
                                X                 Y                 Z
Electronic contribution:     -2.963108184      -1.139596477      -0.000474678
Nuclear contribution   :      4.339399848       1.929951852       0.000075620
                        -----------------------------------------
Total Dipole Moment    :      1.376291664       0.790355374      -0.000399058
                        -----------------------------------------
Magnitude (a.u.)       :      1.587085543
Magnitude (Debye)      :      4.034050860



--------------------
Rotational spectrum 
--------------------
 
Rotational constants in cm-1:             0.194922             0.052646             0.041451 
Rotational constants in MHz :          5843.617950          1578.283606          1242.658180 

Dipole components along the rotational axes: 
x,y,z [a.u.] :     1.375850     0.791124    -0.000409 
x,y,z [Debye]:     3.497133     2.010876    -0.001041 

 

Dipole moment calculation done in   0.1 sec 

Maximum memory used throughout the entire PROP-calculation: 11.5 MB

--------------------------------
SUGGESTED CITATIONS FOR THIS RUN
--------------------------------

Below you find a list of papers that are relevant to this ORCA run
We neither can nor want to force you to cite these papers, but we appreciate if you do
You receive ORCA, which is the product of decades of hard work by many enthusiastic individuals, for free
The only thing we kindly ask in return is that you cite our papers,
We deeply appreciate it, if you show your appreciation for ORCA by not just citing the generic ORCA reference.

Please note that relegating all ORCA citations to the supporting information does *not* help us.
SI sections are not indexed - citations you put there will not count into any citation statistics
But we need these citations in order to attract the funding resources that allow us to do what we are doing

Therefore, if you are a happy ORCA user, please consider citing a few of the papers listed below in the main body of your paper

In addition to the list printed below, the program has created the file xtb_opt.bibtex that contains the list in bibtex format
You can import this file easily into all common literature databanks and citation aid programs


List of essential papers. We consider these as the minimum necessary citations

  1. Neese,F.
     Software update: the ORCA program system, version 5.0
     WIRES Comput. Molec. Sci., 2022 12(1)e1606
     doi.org/10.1002/wcms.1606
  2. Grimme,S.; Hansen,A.; Ehlert,S.; Mewes,J.
     r2SCAN-3c: A 'Swiss army knife' composite electronic-structure method
     J. Chem. Phys., 2021 154 064103
     doi.org/10.1063/5.0040021

List of papers to cite with high priority. The work reported in these papers was absolutely
necessary for this run to complete.
Our perspective: the developers of density functionals and basis sets usually get cited in chemistry papers
Good! But without the algorithms to do something with them, the functionals or basis sets would not do anything.
Hence, in our opinion, the algorithm design and method developments papers are equally worthy of getting cited

  1. Neese,F.
     An improvement of the resolution of the identity approximation for the formation of the Coulomb matrix
     J. Comp. Chem., 2003 24(14)1740-1747
     doi.org/10.1002/jcc.10318
  2. Neese,F.
     The SHARK Integral Generation and Digestion System
     J. Comp. Chem., 2022  1-16
     doi.org/10.1002/jcc.26942
  3. Lehtola,S.; Steigemann,C.; Oliveira,M.; Marques,M.
     Recent developments in Libxc - A comprehensive library of functionals for density functional theory
     Software X, 2018 7 
     doi.org/10.1016/j.softx.2017.11.002
  4. Caldeweyher,E.; Bannwarth,C.; Grimme,S.
     Extension of the D3 dispersion coefficient model
     J. Chem. Phys., 2017 147 034112
     doi.org/10.1063/1.4993215
  5. Caldeweyher,E.; Ehlert,S.; Hansen,A.; Neugebauer,H.; Spicher,S.; Bannwarth,C.; Grimme,S.
     A generally applicable atomic-charge dependent London dispersion correction
     J. Chem. Phys., 2019 150 154122
     doi.org/10.1063/1.5090222
  6. Caldeweyher,E.; Mewes,J.; Ehlert,S.; Grimme,S.
     Extension and evaluation of the D4 London-dispersion model for periodic systems
     Phys. Chem. Chem. Phys., 2020 22(16)8499-8512
     doi.org/10.1039/D0CP00502A
  7. Wittmann,L.; Gordiy,I.; Friede,M.; Helmich-Paris,B.; Grimme,S.; Hansen,A.; Bursch,M.
     Extension of the D3 and D4 London Dispersion Corrections to the full Actinides Series
     Phys. Chem. Chem. Phys., 2024 26(32)21379-21394
     doi.org/https://doi.org/10.1039/D4CP01514B 

List of suggested additional citations. These are papers that are important in the 'surrounding' of 
of this run, or papers that preceded the highly important papers. If you like your results we are grateful for a citation.

  1. Neese,F.
     The ORCA program system
     WIRES Comput. Molec. Sci., 2012 2(1)73-78
     doi.org/10.1002/wcms.81
  2. Neese,F.
     Software update: the ORCA program system, version 4.0
     WIRES Comput. Molec. Sci., 2018 8(1)1-6
     doi.org/10.1002/wcms.1327
  3. Neese,F.; Wennmohs,F.; Becker,U.; Riplinger,C.
     The ORCA quantum chemistry program package
     J. Chem. Phys., 2020 152 Art. No. L224108
     doi.org/10.1063/5.0004608

List of optional additional citations

  1. Neese,F.
     Approximate second-order SCF convergence for spin unrestricted wavefunctions
     Chem. Phys. Lett., 2000 325(1-3)93-98
     doi.org/10.1016/s0009-2614(00)00662-x

Timings for individual modules:

Sum of individual times          ...        8.498 sec (=   0.142 min)
Startup calculation              ...        0.603 sec (=   0.010 min)   7.1 %
SCF iterations                   ...        3.426 sec (=   0.057 min)  40.3 %
Property calculations            ...        0.114 sec (=   0.002 min)   1.3 %
SCF Gradient evaluation          ...        4.355 sec (=   0.073 min)  51.3 %
                             ****ORCA TERMINATED NORMALLY****
TOTAL RUN TIME: 0 days 0 hours 0 minutes 9 seconds 456 msec
  ------------------------------------------------------------------------
          * successful ORCA run, taking over control again...

         :::::::::::::::::::::::::::::::::::::::::::::::::::::
         ::                  ORCA SUMMARY                   ::
         :::::::::::::::::::::::::::::::::::::::::::::::::::::
         :: total energy            -340.438246894916 Eh    ::
         :: gradient norm              0.000306318917 Eh/a0 ::
         :: HOMO-LUMO gap              0.000000000000 eV    ::
         :::::::::::::::::::::::::::::::::::::::::::::::::::::

           -------------------------------------------------
          |                Property Printout                |
           -------------------------------------------------
           -------------------------------------------------
          |                Geometry Summary                 |
           -------------------------------------------------

      molecular mass/u    :      104.1095848
   center of mass at/Å    :        0.0000137      -0.0034230      -0.0000744
  moments of inertia/u·Å² :        0.8648163E+02   0.3202009E+03   0.4066825E+03
rotational constants/cm⁻¹ :        0.1949273E+00   0.5264705E-01   0.4145158E-01

 * 11 selected distances

     #   Z          #   Z                                           value/Å
     1   6 C        2   6 C                                       1.3852657
     2   6 C        3   6 C                                       1.3989258
     3   6 C        4   6 C                                       1.4038452 (max)
     4   6 C        5   7 N                                       1.3293893
     1   6 C        6   6 C                                       1.3927217
     5   7 N        6   6 C                                       1.3375471
     7   6 C        8   7 N                                       1.1580016
     1   6 C        9   1 H                                       1.0842787 (min)
     2   6 C       10   1 H                                       1.0842953
     4   6 C       11   1 H                                       1.0879890
     6   6 C       12   1 H                                       1.0882237

 * 3 distinct bonds (by element types)

   Z      Z             #   av. dist./Å        max./Å        min./Å
   1 H    6 C           4     1.0861967     1.0882237     1.0842787
   6 C    6 C           4     1.3951896     1.4038452     1.3852657
   6 C    7 N           3     1.2749793     1.3375471     1.1580016


optimized geometry written to: xtbopt.coord


           -------------------------------------------------
          | TOTAL ENERGY             -340.438246894916 Eh   |
          | GRADIENT NORM               0.000306318917 Eh/α |
           -------------------------------------------------

------------------------------------------------------------------------
 * finished run on 2025/04/15 at 19:06:55.016     
------------------------------------------------------------------------
 total:
 * wall-time:     0 d,  0 h,  1 min, 47.962 sec
 *  cpu-time:     0 d,  0 h,  0 min,  1.960 sec
 * ratio c/w:     0.018 speedup
 SCF:
 * wall-time:     0 d,  0 h,  0 min, 15.413 sec
 *  cpu-time:     0 d,  0 h,  0 min,  0.952 sec
 * ratio c/w:     0.062 speedup
 ANC optimizer:
 * wall-time:     0 d,  0 h,  1 min, 32.509 sec
 *  cpu-time:     0 d,  0 h,  0 min,  0.994 sec
 * ratio c/w:     0.011 speedup

