      -----------------------------------------------------------      
     |                   =====================                   |     
     |                           x T B                           |     
     |                   =====================                   |     
     |                         S. Grimme                         |     
     |          Mulliken Center for Theoretical Chemistry        |     
     |                    University of Bonn                     |     
      -----------------------------------------------------------      

   * xtb version 6.7.1 (edcfbbe) compiled by 'albert@albert-system' on 2024-07-22

   xtb is free software: you can redistribute it and/or modify it under
   the terms of the GNU Lesser General Public License as published by
   the Free Software Foundation, either version 3 of the License, or
   (at your option) any later version.
   
   xtb is distributed in the hope that it will be useful,
   but WITHOUT ANY WARRANTY; without even the implied warranty of
   MERCHANTABILITY or FITNESS FOR A PARTICULAR PURPOSE.  See the
   GNU Lesser General Public License for more details.
   
   Cite this work as:
   * C. Bannwarth, E. Caldeweyher, S. Ehlert, A. Hansen, P. Pracht,
     J. Seibert, S. Spicher, S. Grimme, WIREs Comput. Mol. Sci., 2020, 11,
     e01493. DOI: 10.1002/wcms.1493
   
   for GFN2-xTB:
   * C. Bannwarth, S. Ehlert and S. Grimme., J. Chem. Theory Comput., 2019,
     15, 1652-1671. DOI: 10.1021/acs.jctc.8b01176
   for GFN1-xTB:
   * S. Grimme, C. Bannwarth, P. Shushkov, J. Chem. Theory Comput., 2017,
     13, 1989-2009. DOI: 10.1021/acs.jctc.7b00118
   for GFN0-xTB:
   * P. Pracht, E. Caldeweyher, S. Ehlert, S. Grimme, ChemRxiv, 2019, preprint.
     DOI: 10.26434/chemrxiv.8326202.v1
   for GFN-FF:
   * S. Spicher and S. Grimme, Angew. Chem. Int. Ed., 2020, 59, 15665-15673.
     DOI: 10.1002/anie.202004239
   
   for ALPB and GBSA implicit solvation:
   * S. Ehlert, M. Stahn, S. Spicher, S. Grimme, J. Chem. Theory Comput.,
     2021, 17, 4250-4261. DOI: 10.1021/acs.jctc.1c00471
   
   for ddCOSMO and CPCM-X implicit solvation:
   * M. Stahn, S. Ehlert, S. Grimme, J. Phys. Chem. A,
     2023, XX, XXXX-XXXX. DOI: 10.1021/acs.jpca.3c04382
   
   for DFT-D4:
   * E. Caldeweyher, C. Bannwarth and S. Grimme, J. Chem. Phys., 2017,
     147, 034112. DOI: 10.1063/1.4993215
   * E. Caldeweyher, S. Ehlert, A. Hansen, H. Neugebauer, S. Spicher,
     C. Bannwarth and S. Grimme, J. Chem. Phys., 2019, 150, 154122.
     DOI: 10.1063/1.5090222
   * E. Caldeweyher, J.-M. Mewes, S. Ehlert and S. Grimme, Phys. Chem. Chem. Phys.
     2020, 22, 8499-8512. DOI: 10.1039/D0CP00502A
   
   for sTDA-xTB:
   * S. Grimme and C. Bannwarth, J. Chem. Phys., 2016, 145, 054103.
     DOI: 10.1063/1.4959605
   
   in the mass-spec context:
   * V. Asgeirsson, C. Bauer and S. Grimme, Chem. Sci., 2017, 8, 4879.
     DOI: 10.1039/c7sc00601b
   * J. Koopman and S. Grimme, ACS Omega 2019, 4, 12, 15120-15133.
     DOI: 10.1021/acsomega.9b02011
   
   for metadynamics refer to:
   * S. Grimme, J. Chem. Theory Comput., 2019, 155, 2847-2862
     DOI: 10.1021/acs.jctc.9b00143
   
   for SPH calculations refer to:
   * S. Spicher and S. Grimme, J. Chem. Theory Comput., 2021, 17, 1701-1714
     DOI: 10.1021/acs.jctc.0c01306
   
   for ONIOM refer to:
   * C. Plett, A. Katbashev, S. Ehlert, S. Grimme, M. Bursch,
     Phys. Chem. Chem. Phys., 2023, 25, 17860-17868. DOI: 10.1039/D3CP02178E
   
   for DIPRO refer to:
   * J. Kohn, N. Gildemeister, S. Grimme, D. Fazzi, A. Hansen,
     J. Chem. Phys., 2023, just accepted.
   
   for PTB refer to:
   * S. Grimme, M. Mueller, A. Hansen, J. Chem. Phys., 2023, 158, 124111.
     DOI: 10.1063/5.0137838
   
   with help from (in alphabetical order)
   P. Atkinson, C. Bannwarth, F. Bohle, G. Brandenburg, E. Caldeweyher
   M. Checinski, S. Dohm, S. Ehlert, S. Ehrlich, I. Gerasimov, C. Hölzer
   A. Katbashev, J. Kohn, J. Koopman, C. Lavigne, S. Lehtola, F. März, M. Müller,
   F. Musil, H. Neugebauer, J. Pisarek, C. Plett, P. Pracht, F. Pultar,
   J. Seibert, P. Shushkov, S. Spicher, M. Stahn, M. Steiner, T. Strunk,
   J. Stückrath, T. Rose, and J. Unsleber
   
 * started run on 2025/04/15 at 21:21:38.326     
   ID    Z sym.   atoms
    1    6 C      1-9, 12, 15, 16
    2    8 O      10, 11, 13
    3    7 N      14
    4    1 H      17-31

           -------------------------------------------------
          |                Calculation Setup                |
           -------------------------------------------------

          program call               : /software/projects/pawsey0265/mwang1/xtb/bin/xtb xtb_opt.coord --opt normal --orca -I xtb_opt-xcontrol-inp
          hostname                   : nid002821
          coordinate file            : xtb_opt.coord
          omp threads                :                    52

           -------------------------------------------------
          |                   Orca driver                   |
           -------------------------------------------------
orca executable           : /software/projects/pawsey0265/mwang1/orca_avx2/orca
orca input file           : xtb_opt.inp
orca input line           : 
orca parallel             : true
orca number of threads    : 52
                         * ORCA takes the control...
  ------------------------------------------------------------------------

                                 *****************
                                 * O   R   C   A *
                                 *****************

                                            #,                                       
                                            ###                                      
                                            ####                                     
                                            #####                                    
                                            ######                                   
                                           ########,                                 
                                     ,,################,,,,,                         
                               ,,#################################,,                 
                          ,,##########################################,,             
                       ,#########################################, ''#####,          
                    ,#############################################,,   '####,        
                  ,##################################################,,,,####,       
                ,###########''''           ''''###############################       
              ,#####''   ,,,,##########,,,,          '''####'''          '####       
            ,##' ,,,,###########################,,,                        '##       
           ' ,,###''''                  '''############,,,                           
         ,,##''                                '''############,,,,        ,,,,,,###''
      ,#''                                            '''#######################'''  
     '                                                          ''''####''''         
             ,#######,   #######,   ,#######,      ##                                
            ,#'     '#,  ##    ##  ,#'     '#,    #''#        ,####,   ,####,        
            ##       ##  ##   ,#'  ##            #'  '#       #'       #'  '#        
            ##       ##  #######   ##           ,######,      #####,   #    #        
            '#,     ,#'  ##    ##  '#,     ,#' ,#      #,     #,   #   #,  ,#        
             '#######'   ##     ##  '#######'  #'      '#     '####' # '####'        



                #########################################################
                #                        -***-                          #
                #          Department of theory and spectroscopy        #
                #                                                       #
                #                      Frank Neese                      #
                #                                                       #
                #     Directorship, Architecture, Infrastructure        #
                #                    SHARK, DRIVERS                     #
                #        Core code/Algorithms in most modules           #
                #                                                       #
                #        Max Planck Institute fuer Kohlenforschung      #
                #                Kaiser Wilhelm Platz 1                 #
                #                 D-45470 Muelheim/Ruhr                 #
                #                      Germany                          #
                #                                                       #
                #                  All rights reserved                  #
                #                        -***-                          #
                #########################################################


                         Program Version 6.0.1  -  RELEASE   -


 With contributions from (in alphabetic order):
[Max-Planck-Institut fuer Kohlenforschung]                               
  Daniel Aravena         : Magnetic Suceptibility                        
  Michael Atanasov       : Ab Initio Ligand Field Theory (pilot matlab implementation)
  Alexander A. Auer      : GIAO ZORA, VPT2 properties, NMR spectrum      
  Ute Becker             : All parallelization in ORCA, NUMFREQ, NUMCALC 
  Giovanni Bistoni       : ED, misc. LED, open-shell LED, HFLD           
  Martin Brehm           : Molecular dynamics                            
  Dmytro Bykov           : pre 5.0 version of the SCF Hessian            
  Marcos Casanova-Páez   : Triplet and SCS-CIS(D). UHF-(DLPNO)-IP/EA/STEOM-CCSD. UHF-CVS-IP/STEOM-CCSD   
  Vijay G. Chilkuri      : MRCI spin determinant printing, contributions to CSF-ICE 
  Pauline Colinet        : FMM embedding                                 
  Dipayan Datta          : RHF DLPNO-CCSD density                        
  Achintya Kumar Dutta   : EOM-CC, STEOM-CC                              
  Nicolas Foglia         : Exact transition moments, OPA infrastructure, MCD improvements    
  Dmitry Ganyushin       : Spin-Orbit,Spin-Spin,Magnetic field MRCI      
  Miquel Garcia-Rates    : C-PCM and meta-GGA Hessian, CCSD/C-PCM, Gaussian charge scheme 
  Tiago L. C. Gouveia    : GS-ROHF, GS-ROCIS                             
  Yang Guo               : DLPNO-NEVPT2, F12-NEVPT2, CIM, IAO-localization        
  Andreas Hansen         : Spin unrestricted coupled pair/coupled cluster methods 
  Ingolf Harden          : AUTO-CI MPn and infrastructure                
  Benjamin Helmich-Paris : MC-RPA, TRAH-(SCF,CASSCF), AVAS, COSX integrals, SCF dyn. polar. 
  Lee Huntington         : MR-EOM, pCC                                   
  Robert Izsak           : Overlap fitted RIJCOSX, COSX-SCS-MP3, EOM     
  Riya Kayal             : Wick's Theorem for AUTO-CI, AUTO-CI UHF-CCSDT 
  Emily Kempfer          : AUTO-CI, RHF CISDT and CCSDT                  
  Christian Kollmar      : KDIIS, OOCD, Brueckner-CCSD(T), CCSD density, CASPT2, CASPT2-K, improved NEVPT2 
  Axel Koslowski         : Symmetry handling                             
  Simone Kossmann        : meta-GGA functionals, TD-DFT gradient, OOMP2, (MP2 Hessian; deprecated post 5.0) 
  Lucas Lang             : DCDCAS                                        
  Marvin Lechner         : AUTO-CI (C++ implementation), FIC-MRCC        
  Spencer Leger          : CASSCF response                               
  Dagmar Lenk            : GEPOL surface, SMD, ORCA-2-JSON               
  Dimitrios Liakos       : Extrapolation schemes; Compound Job, initial MDCI parallelization 
  Dimitrios Manganas     : Further ROCIS development; embedding schemes. LFT, Crystal Embedding 
  Dimitrios Pantazis     : SARC Basis sets                               
  Anastasios Papadopoulos: AUTO-CI, single reference methods and gradients 
  Taras Petrenko         : pre 6.0 DFT Hessian and TD-DFT gradient, (ASA, deprecated), ECA, 1-Electron XAS/XES, NRVS 
  Peter Pinski           : DLPNO-MP2, DLPNO-MP2 Gradient                 
  Christoph Reimann      : Effective Core Potentials                     
  Marius Retegan         : Local ZFS, SOC                                
  Christoph Riplinger    : Optimizer, TS searches, QM/MM, DLPNO-CCSD(T), (RO)-DLPNO pert. Triples 
  Michael Roemelt        : Original ROCIS implementation                 
  Masaaki Saitow         : Open-shell DLPNO-CCSD energy and density      
  Barbara Sandhoefer     : DKH picture change effects                    
  Kantharuban Sivalingam : CASSCF convergence/infrastructure, NEVPT2 and variants, FIC-MRCI 
  Bernardo de Souza      : ESD, SOC TD-DFT                               
  Georgi L. Stoychev     : AutoAux, RI-MP2 NMR, DLPNO-MP2 response, X2C  
  Van Anh Tran           : RI-MP2 g-tensors                              
  Willem Van den Heuvel  : Paramagnetic NMR                              
  Zikuan Wang            : NOTCH, Electric field optimization            
  Frank Wennmohs         : Technical directorship and infrastructure     
  Hang Xu                : AUTO-CI-Response properties                   
                                                                         
[FACCTs GmbH]                                                            
  Markus Bursch, Miquel Garcia-Rates, Christoph Riplinger, Bernardo de Souza, Georgi L. Stoychev 
                                                                 
  APM, Basis sets (HGBS, AHGBS, def-TZVP (Ac-Lr), def2-XVPD (La-Lu)), CI-OPT, improved COSX, DLPNO-Multilevel,           
  DOCKER, DRACO, updates on ESD, GOAT, IRC, LR-CPCM, MBIS, meta-GGA TD-DFT gradient, ML-optimized integration grids, 
  MM, NACMEs, nearIR, NEB, NEB-TS, NL-DFT gradient (VV10), 2- and 3-layer-ONIOM, interface openCOSMO-RS, QMMM,   
  Crystal-QMMM, SF, symmetry and pop. for TD-DFT, r2SCAN hybrids, SOLVATOR                                   
                                                                         
[Other institutions]                                                     
  V. Asgeirsson          : NEB                                           
  Christoph Bannwarth    : sTDA-DFT, sTD-DFT, PBEh-3c, B97-3c, D3        
  Sebastian Ehlert       : rSCAN, r2SCAN, r2SCAN-3c, D4, dhf basis sets  
  Marvin Friede          : D4 for Fr, Ra, Ac-Lr                          
  Lars Goerigk           : TD-DFT with DH, B97 family of functionals     
  Stefan Grimme          : VdW corrections, initial TS optimization, DFT functionals, gCP, sTDA/sTD-DF 
  Waldemar Hujo          : DFT-NL                                        
  H. Jonsson             : NEB                                           
  Holger Kruse           : gCP                                           
  Marcel Mueller         : wB97X-3c, vDZP basis set                      
  Hagen Neugebauer       : wr2SCAN                                       
  Tobias Risthaus        : range-separated hybrid DFT                    
  Lukas Wittmann         : regularized MP2, r2SCAN double-hybrids, wr2SCAN        
                                                                         
We gratefully acknowledge several colleagues who have allowed us to      
interface, adapt or use parts of their codes:                            
  Ed Valeev, F. Pavosevic, A. Kumar             : LibInt (2-el integral package), F12 methods 
  Garnet Chan, S. Sharma, J. Yang, R. Olivares  : DMRG                   
  Ulf Ekstrom                                   : XCFun DFT Library      
  Mihaly Kallay                                 : mrcc  (arbitrary order and MRCC methods)
  Frank Weinhold                                : gennbo (NPA and NBO analysis)           
  Simon Mueller                                 : openCOSMO-RS                            
  Christopher J. Cramer and Donald G. Truhlar   : smd solvation model                     
  S Lehtola, MJT Oliveira, MAL Marques          : LibXC Library                           
  Liviu Ungur et al                             : ANISO software                          


 Your calculation uses the libint2 library for the computation of 2-el integrals
 For citations please refer to: http://libint.valeyev.net

 Your ORCA version has been built with support for libXC version: 6.2.2
 For citations please refer to: https://libxc.gitlab.io

 This ORCA versions uses:
   CBLAS   interface :  Fast vector & matrix operations
   LAPACKE interface :  Fast linear algebra routines
   SCALAPACK package :  Parallel linear algebra routines
   Shared memory     :  Shared parallel matrices
   BLAS/LAPACK       :  OpenBLAS 0.3.27  USE64BITINT DYNAMIC_ARCH NO_AFFINITY Zen SINGLE_THREADED
        Core in use  :  Zen
   Copyright (c) 2011-2014, The OpenBLAS Project




***************************************
The coordinates will be read from file: xtb_opt.xyz
***************************************


Your calculation utilizes the geometrical counterpoise correction gCP
Please cite in your paper:
H.Kruse, S. Grimme J.Chem.Phys., 136, (2012), 154101 
   

Your calculation utilizes the atom-pairwise dispersion correction
based on EEQ partial charges (D4)


================================================================================

----- Orbital basis set information -----
Your calculation utilizes the basis: def2-mTZVPP
   Stefan Grimme, Andreas Hansen, Sebastian Ehlert, and Jan-Michael Mewes 
   J. Chem. Phys. 154, 064103 (2021). DOI: 10.1063/5.0040021

----- AuxJ basis set information -----
Your calculation utilizes the auxiliary basis: def2/J
   F. Weigend, Phys. Chem. Chem. Phys. 8, 1057 (2006).

================================================================================
                                        WARNINGS
                       Please study these warnings very carefully!
================================================================================

WARNING: Old DensityContainer found on disk!
         Will remove this file - 
         If you want to keep old densities, please start your calculation with a different basename. 



WARNING: SCAN, rSCAN, or r2SCAN functional requested.
  ===> : libXC variant has now been activated.



================================================================================
                                       INPUT FILE
================================================================================
NAME = xtb_opt.inp
|  1> ! r2scan-3c def2/J RI DEFGRID2 scfconv7 ENGRAD tightSCF miniprint
|  2> * xyzfile 0 1 xtb_opt.xyz
|  3> 
|  4>                          ****END OF INPUT****
================================================================================

                     *******************************
                     * Energy+Gradient Calculation *
                     *******************************

---------------------------------
CARTESIAN COORDINATES (ANGSTROEM)
---------------------------------
  C      2.054469    2.746221    1.086952
  C      1.779059    1.631480    0.099917
  C      2.870134    0.528986    0.068339
  C      2.051243   -0.731807    0.006916
  C      2.387572   -2.053628   -0.237269
  C      1.386949   -3.026659   -0.176454
  C      0.071035   -2.671664    0.116003
  C     -0.261642   -1.345731    0.361392
  C      0.739408   -0.385127    0.316819
  O      0.558573    0.933504    0.571237
  O     -1.563617   -1.004980    0.702463
  C     -2.219047   -0.164900   -0.192122
  O     -1.798179    0.132115   -1.284977
  N     -3.403782    0.209687    0.353583
  C     -4.267641    1.168761   -0.310836
  C      1.467790    2.146284   -1.298068
  H      2.215346    2.340316    2.089613
  H      2.947598    3.301403    0.784952
  H      1.210735    3.440901    1.121676
  H      3.536329    0.655488   -0.790445
  H      3.483860    0.552172    0.978429
  H      3.410584   -2.331095   -0.471559
  H      1.627727   -4.066542   -0.367729
  H     -0.716135   -3.417373    0.147569
  H     -3.553884   -0.007923    1.324539
  H     -5.313859    0.941189   -0.085801
  H     -4.110904    1.086466   -1.387966
  H     -4.052957    2.201757   -0.006875
  H      1.215667    1.312637   -1.960453
  H      2.333654    2.677191   -1.707380
  H      0.614609    2.828820   -1.268236

----------------------------
CARTESIAN COORDINATES (A.U.)
----------------------------
  NO LB      ZA    FRAG     MASS         X           Y           Z
   0 C     6.0000    0    12.011    3.882383    5.189606    2.054041
   1 C     6.0000    0    12.011    3.361935    3.083051    0.188815
   2 C     6.0000    0    12.011    5.423768    0.999639    0.129143
   3 C     6.0000    0    12.011    3.876288   -1.382915    0.013070
   4 C     6.0000    0    12.011    4.511857   -3.880794   -0.448373
   5 C     6.0000    0    12.011    2.620953   -5.719556   -0.333451
   6 C     6.0000    0    12.011    0.134236   -5.048714    0.219214
   7 C     6.0000    0    12.011   -0.494431   -2.543062    0.682932
   8 C     6.0000    0    12.011    1.397279   -0.727785    0.598702
   9 O     8.0000    0    15.999    1.055550    1.764068    1.079482
  10 O     8.0000    0    15.999   -2.954808   -1.899136    1.327462
  11 C     6.0000    0    12.011   -4.193391   -0.311616   -0.363057
  12 O     8.0000    0    15.999   -3.398066    0.249661   -2.428255
  13 N     7.0000    0    14.007   -6.432215    0.396250    0.668175
  14 C     6.0000    0    12.011   -8.064672    2.208637   -0.587395
  15 C     6.0000    0    12.011    2.773721    4.055890   -2.452992
  16 H     1.0000    0     1.008    4.186397    4.422557    3.948796
  17 H     1.0000    0     1.008    5.570153    6.238748    1.483345
  18 H     1.0000    0     1.008    2.287958    6.502361    2.119660
  19 H     1.0000    0     1.008    6.682693    1.238694   -1.493724
  20 H     1.0000    0     1.008    6.583541    1.043454    1.848963
  21 H     1.0000    0     1.008    6.445070   -4.405130   -0.891117
  22 H     1.0000    0     1.008    3.075958   -7.684651   -0.694907
  23 H     1.0000    0     1.008   -1.353299   -6.457898    0.278866
  24 H     1.0000    0     1.008   -6.715867   -0.014972    2.503016
  25 H     1.0000    0     1.008  -10.041739    1.778590   -0.162140
  26 H     1.0000    0     1.008   -7.768483    2.053123   -2.622876
  27 H     1.0000    0     1.008   -7.658979    4.160717   -0.012993
  28 H     1.0000    0     1.008    2.297278    2.480524   -3.704719
  29 H     1.0000    0     1.008    4.409968    5.059157   -3.226481
  30 H     1.0000    0     1.008    1.161443    5.345694   -2.396619

------------------------------------------------------------------------------
                   ___                                                        
                  /   \      - P O W E R E D   B Y -                         
                 /     \                                                     
                 |  |  |   _    _      __       _____    __    __             
                 |  |  |  | |  | |    /  \     |  _  \  |  |  /  |          
                  \  \/   | |  | |   /    \    | | | |  |  | /  /          
                 / \  \   | |__| |  /  /\  \   | |_| |  |  |/  /          
                |  |  |   |  __  | /  /__\  \  |    /   |      \           
                |  |  |   | |  | | |   __   |  |    \   |  |\   \          
                \     /   | |  | | |  |  |  |  | |\  \  |  | \   \       
                 \___/    |_|  |_| |__|  |__|  |_| \__\ |__|  \__/        
                                                                              
                      - O R C A' S   B I G   F R I E N D -                    
                                      &                                       
                       - I N T E G R A L  F E E D E R -                       
                                                                              
 v1 FN, 2020, v2 2021, v3 2022-2024                                           
------------------------------------------------------------------------------


----------------------
SHARK INTEGRAL PACKAGE
----------------------

Number of atoms                             ...     31
Number of basis functions                   ...    399
Number of shells                            ...    193
Maximum angular momentum                    ...      2
Integral batch strategy                     ... SHARK/LIBINT Hybrid
RI-J (if used) integral strategy            ... SPLIT-RIJ (Revised 2003 algorithm where possible)
Printlevel                                  ...      1
Contraction scheme used                     ... SEGMENTED contraction
Prescreening option                         ... SCHWARTZ
   Thresh                                   ... 3.000e-11
   Tcut                                     ... 1.000e-12
   Tpresel                                  ... 1.000e-12 
Coulomb Range Separation                    ... NOT USED
Exchange Range Separation                   ... NOT USED
Multipole approximations                    ... NOT USED
Finite Nucleus Model                        ... NOT USED
CABS basis                                  ... NOT available
Auxiliary Coulomb fitting basis             ... AVAILABLE
   # of basis functions in Aux-J            ...    949
   # of shells in Aux-J                     ...    315
   Maximum angular momentum in Aux-J        ...      4
Auxiliary J/K fitting basis                 ... NOT available
Auxiliary Correlation fitting basis         ... NOT available
Auxiliary 'external' fitting basis          ... NOT available

Checking pre-screening integrals            ... done (  0.0 sec) Dimension = 193
Check shell pair data                       ... done (  0.0 sec)
Shell pair information
Shell pair cut-off parameter TPreSel        ...   1.0e-12
Total number of shell pairs                 ...     18721
Shell pairs after pre-screening             ...     14870
Total number of primitive shell pairs       ...     67925
Primitive shell pairs kept                  ...     35385
          la=0 lb=0:   4658 shell pairs
          la=1 lb=0:   5558 shell pairs
          la=1 lb=1:   1692 shell pairs
          la=2 lb=0:   1743 shell pairs
          la=2 lb=1:   1041 shell pairs
          la=2 lb=2:    178 shell pairs

Calculating one electron integrals          ... done (  0.1 sec)
Calculating RI/J V-Matrix + Cholesky decomp.... done (  0.0 sec)
Calculating Nuclear repulsion               ... done (  0.0 sec) ENN=   1141.346774453290 Eh

Diagonalization of the overlap matrix:
Smallest eigenvalue                        ... 1.655e-05
Time for diagonalization                   ...    0.018 sec
Threshold for overlap eigenvalues          ... 1.000e-07
Number of eigenvalues below threshold      ... 0
Time for construction of square roots      ...    0.011 sec
Total time needed                          ...    0.031 sec

-------------------
DFT GRID GENERATION
-------------------

General Integration Accuracy     IntAcc      ... 4.388
Radial Grid Type                 RadialGrid  ... OptM3 with GC (2021)
Angular Grid (max. ang.)         AngularGrid ... 4 (Lebedev-302)
Angular grid pruning method      GridPruning ... 4 (adaptive)
Weight generation scheme         WeightScheme... mBecke (2022)
Basis function cutoff            BFCut       ... 1.0000e-11
Integration weight cutoff        WCut        ... 1.0000e-14
Partially contracted basis set               ... off
Rotationally invariant grid construction     ... off
Angular grids for H and He will be reduced by one unit
Diffuse basis detected: some atoms will have their outermost
                        angular grid increased by 1.

Total number of grid points                  ...   144637
Total number of batches                      ...     2277
Average number of points per batch           ...       63
Average number of grid points per atom       ...     4666
Initializing property integral containers    ... done (  0.0 sec)

SHARK setup successfully completed in   1.9 seconds

Maximum memory used throughout the entire STARTUP-calculation: 75.8 MB
Occupation numbers will be reassigned to an Aufbau configuration
             **** ENERGY FILE WAS UPDATED (xtb_opt.en.tmp) ****
Finished Guess after   0.2 sec
Maximum memory used throughout the entire GUESS-calculation: 38.6 MB
----------------------------------------D-I-I-S--------------------------------------------
Iteration    Energy (Eh)           Delta-E    RMSDP     MaxDP     DIISErr   Damp  Time(sec)
-------------------------------------------------------------------------------------------
               ***  Starting incremental Fock matrix formation  ***
                              *** Initializing SOSCF ***
---------------------------------------S-O-S-C-F--------------------------------------
Iteration    Energy (Eh)           Delta-E    RMSDP     MaxDP     MaxGrad    Time(sec)
--------------------------------------------------------------------------------------
    1    -746.6038661218328798     0.00e+00  3.01e-06  2.45e-04  5.92e-06     9.8
               *** Restarting incremental Fock matrix formation ***
    2    -746.6038661210047849     8.28e-10  2.03e-06  1.55e-04  9.24e-06     9.5
                  *** Gradient check signals convergence ***

               *****************************************************
               *                     SUCCESS                       *
               *           SCF CONVERGED AFTER   2 CYCLES          *
               *****************************************************

             **** ENERGY FILE WAS UPDATED (xtb_opt.en.tmp) ****

----------------
TOTAL SCF ENERGY
----------------

Total Energy       :       -746.60386612100478 Eh          -20316.12405 eV

Components:
Nuclear Repulsion  :       1141.34677445329044 Eh           31057.62467 eV
Electronic Energy  :      -1887.95064057429522 Eh          -51373.74872 eV
One Electron Energy:      -3282.40789140643619 Eh          -89318.85961 eV
Two Electron Energy:       1394.45725083214097 Eh           37945.11089 eV

Virial components:
Potential Energy   :      -1489.92006044228310 Eh          -40542.78600 eV
Kinetic Energy     :        743.31619432127832 Eh           20226.66195 eV
Virial Ratio       :          2.00442297884110

DFT components:
N(Alpha)           :       58.999943769167 electrons
N(Beta)            :       58.999943769167 electrons
N(Total)           :      117.999887538334 electrons
E(X)               :      -99.347970709857 Eh       
E(C)               :       -3.857307605558 Eh       
E(XC)              :     -103.205278315416 Eh       

---------------
SCF CONVERGENCE
---------------

  Last Energy change         ...   -8.2809e-10  Tolerance :   1.0000e-07
  Last MAX-Density change    ...    1.5454e-04  Tolerance :   1.0000e-07
  Last RMS-Density change    ...    2.0280e-06  Tolerance :   5.0000e-09
  Last DIIS Error            ...    1.9563e-05  Tolerance :   1.0000e-07
  Last Orbital Gradient      ...    9.2379e-06  Tolerance :   1.0000e-04
  Last Orbital Rotation      ...    4.6836e-05  Tolerance :   1.0000e-04


----------------
ORBITAL ENERGIES
----------------

  NO   OCC          E(Eh)            E(eV) 
   0   2.0000     -18.994694      -516.8719 
   1   2.0000     -18.974980      -516.3355 
   2   2.0000     -18.918893      -514.8092 
   3   2.0000     -14.190127      -386.1330 
   4   2.0000     -10.171145      -276.7709 
   5   2.0000     -10.103723      -274.9363 
   6   2.0000     -10.088673      -274.5267 
   7   2.0000     -10.083378      -274.3827 
   8   2.0000     -10.068657      -273.9821 
   9   2.0000     -10.044150      -273.3152 
  10   2.0000     -10.038167      -273.1524 
  11   2.0000     -10.033564      -273.0272 
  12   2.0000     -10.032937      -273.0101 
  13   2.0000     -10.029288      -272.9108 
  14   2.0000     -10.028300      -272.8839 
  15   2.0000     -10.020741      -272.6782 
  16   2.0000      -1.067169       -29.0391 
  17   2.0000      -1.027272       -27.9535 
  18   2.0000      -0.979436       -26.6518 
  19   2.0000      -0.895961       -24.3804 
  20   2.0000      -0.817770       -22.2527 
  21   2.0000      -0.779662       -21.2157 
  22   2.0000      -0.734044       -19.9744 
  23   2.0000      -0.711394       -19.3580 
  24   2.0000      -0.674527       -18.3548 
  25   2.0000      -0.662965       -18.0402 
  26   2.0000      -0.653342       -17.7783 
  27   2.0000      -0.592724       -16.1289 
  28   2.0000      -0.571971       -15.5641 
  29   2.0000      -0.549845       -14.9620 
  30   2.0000      -0.537637       -14.6299 
  31   2.0000      -0.522976       -14.2309 
  32   2.0000      -0.469984       -12.7889 
  33   2.0000      -0.454253       -12.3609 
  34   2.0000      -0.448774       -12.2117 
  35   2.0000      -0.443600       -12.0710 
  36   2.0000      -0.435975       -11.8635 
  37   2.0000      -0.427560       -11.6345 
  38   2.0000      -0.412247       -11.2178 
  39   2.0000      -0.406326       -11.0567 
  40   2.0000      -0.387766       -10.5517 
  41   2.0000      -0.386494       -10.5170 
  42   2.0000      -0.378247       -10.2926 
  43   2.0000      -0.372001       -10.1227 
  44   2.0000      -0.369346       -10.0504 
  45   2.0000      -0.362738        -9.8706 
  46   2.0000      -0.351076        -9.5533 
  47   2.0000      -0.345777        -9.4091 
  48   2.0000      -0.337655        -9.1881 
  49   2.0000      -0.327721        -8.9177 
  50   2.0000      -0.325394        -8.8544 
  51   2.0000      -0.313451        -8.5294 
  52   2.0000      -0.299510        -8.1501 
  53   2.0000      -0.284720        -7.7476 
  54   2.0000      -0.274616        -7.4727 
  55   2.0000      -0.246331        -6.7030 
  56   2.0000      -0.231552        -6.3008 
  57   2.0000      -0.219398        -5.9701 
  58   2.0000      -0.189870        -5.1666 
  59   0.0000      -0.027425        -0.7463 
  60   0.0000      -0.012429        -0.3382 
  61   0.0000       0.024603         0.6695 
  62   0.0000       0.054130         1.4730 
  63   0.0000       0.075541         2.0556 
  64   0.0000       0.080702         2.1960 
  65   0.0000       0.089322         2.4306 
  66   0.0000       0.103584         2.8187 
  67   0.0000       0.108172         2.9435 
  68   0.0000       0.118047         3.2122 
  69   0.0000       0.120860         3.2888 
*Only the first 10 virtual orbitals were printed.
Total SCF time: 0 days 0 hours 0 min 20 sec 
Finished LeanSCF after  22.3 sec

Maximum memory used throughout the entire LEANSCF-calculation: 54.5 MB


-------------------------------------------------------------------------------
                          DFT DISPERSION CORRECTION                            
                                                                               
                                DFTD4 V3.4.0                                   
-------------------------------------------------------------------------------
-------------------------   ----------------
Dispersion correction           -0.012290848
-------------------------   ----------------

------------------   -----------------
gCP correction             0.019625817
------------------   -----------------

-------------------------   --------------------
FINAL SINGLE POINT ENERGY      -746.596531152501
-------------------------   --------------------

------------------------------------------------------------------------------
                         ORCA SCF GRADIENT CALCULATION
------------------------------------------------------------------------------

Nuc. rep. gradient        (SHARK) ... done (  0.0 sec)
HCore & Overlap gradient  (SHARK) ... done (  1.1 sec)
Split-RIJ-J gradient      (SHARK) ... done (  6.3 sec)
XC gradient                       ... done ( 16.6 sec)
Dispersion correction             ... done (  0.0 sec)

-------------------
DISPERSION GRADIENT
-------------------

   1   C   :    0.000045506    0.000117619    0.000061828
   2   C   :    0.000062977    0.000093272    0.000009882
   3   C   :    0.000114314    0.000036944    0.000005173
   4   C   :    0.000098546   -0.000059700    0.000005362
   5   C   :    0.000097125   -0.000125949   -0.000013677
   6   C   :    0.000038935   -0.000151479   -0.000010121
   7   C   :   -0.000015708   -0.000153138    0.000013488
   8   C   :   -0.000049142   -0.000109911    0.000035745
   9   C   :    0.000025986   -0.000040175    0.000030102
  10   O   :    0.000025979    0.000066765    0.000042859
  11   O   :   -0.000088123   -0.000051773    0.000048280
  12   C   :   -0.000149110   -0.000008305   -0.000003926
  13   O   :   -0.000117544    0.000003480   -0.000091630
  14   N   :   -0.000126263    0.000014264    0.000027486
  15   C   :   -0.000089715    0.000044008   -0.000014317
  16   C   :    0.000044802    0.000121871   -0.000094116
  17   H   :    0.000013846    0.000041522    0.000044007
  18   H   :    0.000015815    0.000041020    0.000019693
  19   H   :    0.000004149    0.000050475    0.000026608
  20   H   :    0.000050853    0.000009079   -0.000019061
  21   H   :    0.000049090    0.000009322    0.000024407
  22   H   :    0.000043951   -0.000040125   -0.000011327
  23   H   :    0.000011221   -0.000046303   -0.000007762
  24   H   :   -0.000015453   -0.000055787    0.000004174
  25   H   :   -0.000036257    0.000007037    0.000011585
  26   H   :   -0.000023421    0.000010682   -0.000000070
  27   H   :   -0.000028803    0.000011995   -0.000009675
  28   H   :   -0.000032928    0.000019440    0.000000435
  29   H   :    0.000013499    0.000046187   -0.000059603
  30   H   :    0.000010759    0.000040120   -0.000039528
  31   H   :    0.000005113    0.000057543   -0.000036299

Difference to translation invariance:
           :   -0.0000000000   -0.0000000000    0.0000000000

Difference to rotation invariance:
           :    0.0000000000   -0.0000000000   -0.0000000000

Norm of the Dispersion gradient    ...    0.0005600797
RMS gradient                       ...    0.0000580776
MAX gradient                       ...    0.0001531385
gCP correction                   ... done

------------------
CARTESIAN GRADIENT
------------------

   1   C   :    0.000101028    0.000054096   -0.000323310
   2   C   :    0.000048033    0.000399006    0.000086586
   3   C   :    0.000048232    0.000028936   -0.000099803
   4   C   :   -0.000023006    0.000021249   -0.000061033
   5   C   :   -0.000072185   -0.000048984    0.000054774
   6   C   :    0.000291054    0.000036380   -0.000047931
   7   C   :   -0.000142158    0.000132979    0.000058920
   8   C   :   -0.000041386   -0.000126832   -0.000079791
   9   C   :    0.000263139   -0.000307343   -0.000146447
  10   O   :    0.000060207    0.000225196   -0.000042804
  11   O   :    0.000083728    0.000005385    0.000525441
  12   C   :    0.000282529    0.000147515   -0.001518721
  13   O   :   -0.000009033   -0.000164840    0.000549779
  14   N   :   -0.000257903   -0.000004306    0.000560546
  15   C   :   -0.000013268    0.000246086   -0.000024363
  16   C   :   -0.000030430   -0.000183339    0.000146564
  17   H   :   -0.000012917   -0.000022261    0.000143999
  18   H   :   -0.000202766   -0.000058657    0.000084857
  19   H   :   -0.000007033   -0.000129348    0.000069630
  20   H   :   -0.000000176    0.000030059    0.000069417
  21   H   :   -0.000060027   -0.000042313   -0.000012243
  22   H   :   -0.000028343   -0.000041897    0.000025263
  23   H   :   -0.000094366   -0.000065327    0.000055400
  24   H   :    0.000025279   -0.000057925   -0.000015440
  25   H   :   -0.000067549    0.000042705   -0.000041110
  26   H   :   -0.000227908   -0.000096912    0.000032541
  27   H   :    0.000017915   -0.000088049   -0.000075083
  28   H   :   -0.000030489    0.000037123    0.000092480
  29   H   :   -0.000023295    0.000026484   -0.000051134
  30   H   :    0.000050769   -0.000039602   -0.000030137
  31   H   :    0.000072323    0.000044736    0.000013156

Difference to translation invariance:
           :   -0.0000000000    0.0000000000    0.0000000000

Difference to rotation invariance:
           :   -0.0003456850   -0.0002312985   -0.0000964052

Norm of the Cartesian gradient     ...    0.0021142850
RMS gradient                       ...    0.0002192411
MAX gradient                       ...    0.0015187209

-------
TIMINGS
-------

Total SCF gradient time     ....       24.067 sec

Densities                   ....       0.002 sec  (  0.0%)
One electron gradient       ....       1.111 sec  (  4.6%)
RI-J Coulomb gradient       ....       6.332 sec  ( 26.3%)
XC gradient                 ....      16.583 sec  ( 68.9%)

Maximum memory used throughout the entire SCFGRAD-calculation: 64.5 MB

------------------------------------------------------------------------------
                              ORCA PROPERTY CALCULATIONS
------------------------------------------------------------------------------

GBWName                                 ... xtb_opt.gbw
Number of atoms                         ...     31
Number of basis functions               ...    399
Max core memory                         ...   1024 MB

Electric properties:
Dipole moment                           ... YES
Quadrupole moment                       ...  NO
Static polarizability (Dipole/Dipole)   ...  NO
Static polarizability (Dipole/Quad.)    ...  NO
Static polarizability (Quad./Quad.)     ...  NO
Static polarizability (Velocity)        ...  NO

Atomic electric properties:
Dipole moment                           ...  NO
Quadrupole moment                       ...  NO
Static polarizability                   ...  NO

Choice of electric origin               ... Center of mass
Position of electric origin             ...     0.078254    -0.088845     0.010737

General magnetic properties:
Magnetizability                         ...  NO

EPR properties:
g-Tensor (aka g-matrix)                 ...  NO
Zero-Field splitting spin-orbit         ...  NO
Zero-field splitting spin-spin          ...  NO
Hyperfine couplings                     ...  NO (   0 nuclei)
Quadrupole couplings                    ...  NO (   0 nuclei)
Contact density                         ...  NO (   0 nuclei)

NMR properties:
Chemical shifts                         ...  NO (   0 nuclei)
Spin-rotation constants                 ...  NO (   0 nuclei)
Spin-spin couplings                     ...  NO (   0 nuclei,    0 pairs)

Choice of magnetic origin               ... GIAO
Position of magnetic origin             ...     0.000000     0.000000     0.000000

Properties with geometric perturbations:
SCF Hessian                             ...  NO
IR spectrum                             ...  NO
VCD spectrum                            ...  NO
X-ray spectroscopy properties:
SCF XES/XAS/RIXS spectra                ...  NO


-------------
DIPOLE MOMENT
-------------

Method             : SCF
Type of density    : Electron Density
Multiplicity       :   1
Irrep              :   0
Energy             :  -746.6038661210047849 Eh
Relativity type    : 
Basis              : AO
                                X                 Y                 Z
Electronic contribution:     -3.924676785     -10.854050885       2.122073795
Nuclear contribution   :      3.903611196      11.469505900      -1.579226587
                        -----------------------------------------
Total Dipole Moment    :     -0.021065589       0.615455015       0.542847208
                        -----------------------------------------
Magnitude (a.u.)       :      0.820921267
Magnitude (Debye)      :      2.086616034



--------------------
Rotational spectrum 
--------------------
 
Rotational constants in cm-1:             0.024331             0.014817             0.010350 
Rotational constants in MHz :           729.414540           444.202595           310.285566 

Dipole components along the rotational axes: 
x,y,z [a.u.] :     0.007813     0.614098     0.544733 
x,y,z [Debye]:     0.019859     1.560913     1.384602 

 

Dipole moment calculation done in   0.8 sec 

Maximum memory used throughout the entire PROP-calculation: 36.5 MB

--------------------------------
SUGGESTED CITATIONS FOR THIS RUN
--------------------------------

Below you find a list of papers that are relevant to this ORCA run
We neither can nor want to force you to cite these papers, but we appreciate if you do
You receive ORCA, which is the product of decades of hard work by many enthusiastic individuals, for free
The only thing we kindly ask in return is that you cite our papers,
We deeply appreciate it, if you show your appreciation for ORCA by not just citing the generic ORCA reference.

Please note that relegating all ORCA citations to the supporting information does *not* help us.
SI sections are not indexed - citations you put there will not count into any citation statistics
But we need these citations in order to attract the funding resources that allow us to do what we are doing

Therefore, if you are a happy ORCA user, please consider citing a few of the papers listed below in the main body of your paper

In addition to the list printed below, the program has created the file xtb_opt.bibtex that contains the list in bibtex format
You can import this file easily into all common literature databanks and citation aid programs


List of essential papers. We consider these as the minimum necessary citations

  1. Neese,F.
     Software update: the ORCA program system, version 5.0
     WIRES Comput. Molec. Sci., 2022 12(1)e1606
     doi.org/10.1002/wcms.1606
  2. Grimme,S.; Hansen,A.; Ehlert,S.; Mewes,J.
     r2SCAN-3c: A 'Swiss army knife' composite electronic-structure method
     J. Chem. Phys., 2021 154 064103
     doi.org/10.1063/5.0040021

List of papers to cite with high priority. The work reported in these papers was absolutely
necessary for this run to complete.
Our perspective: the developers of density functionals and basis sets usually get cited in chemistry papers
Good! But without the algorithms to do something with them, the functionals or basis sets would not do anything.
Hence, in our opinion, the algorithm design and method developments papers are equally worthy of getting cited

  1. Neese,F.
     An improvement of the resolution of the identity approximation for the formation of the Coulomb matrix
     J. Comp. Chem., 2003 24(14)1740-1747
     doi.org/10.1002/jcc.10318
  2. Neese,F.
     The SHARK Integral Generation and Digestion System
     J. Comp. Chem., 2022  1-16
     doi.org/10.1002/jcc.26942
  3. Lehtola,S.; Steigemann,C.; Oliveira,M.; Marques,M.
     Recent developments in Libxc - A comprehensive library of functionals for density functional theory
     Software X, 2018 7 
     doi.org/10.1016/j.softx.2017.11.002
  4. Caldeweyher,E.; Bannwarth,C.; Grimme,S.
     Extension of the D3 dispersion coefficient model
     J. Chem. Phys., 2017 147 034112
     doi.org/10.1063/1.4993215
  5. Caldeweyher,E.; Ehlert,S.; Hansen,A.; Neugebauer,H.; Spicher,S.; Bannwarth,C.; Grimme,S.
     A generally applicable atomic-charge dependent London dispersion correction
     J. Chem. Phys., 2019 150 154122
     doi.org/10.1063/1.5090222
  6. Caldeweyher,E.; Mewes,J.; Ehlert,S.; Grimme,S.
     Extension and evaluation of the D4 London-dispersion model for periodic systems
     Phys. Chem. Chem. Phys., 2020 22(16)8499-8512
     doi.org/10.1039/D0CP00502A
  7. Wittmann,L.; Gordiy,I.; Friede,M.; Helmich-Paris,B.; Grimme,S.; Hansen,A.; Bursch,M.
     Extension of the D3 and D4 London Dispersion Corrections to the full Actinides Series
     Phys. Chem. Chem. Phys., 2024 26(32)21379-21394
     doi.org/https://doi.org/10.1039/D4CP01514B 

List of suggested additional citations. These are papers that are important in the 'surrounding' of 
of this run, or papers that preceded the highly important papers. If you like your results we are grateful for a citation.

  1. Neese,F.
     The ORCA program system
     WIRES Comput. Molec. Sci., 2012 2(1)73-78
     doi.org/10.1002/wcms.81
  2. Neese,F.
     Software update: the ORCA program system, version 4.0
     WIRES Comput. Molec. Sci., 2018 8(1)1-6
     doi.org/10.1002/wcms.1327
  3. Neese,F.; Wennmohs,F.; Becker,U.; Riplinger,C.
     The ORCA quantum chemistry program package
     J. Chem. Phys., 2020 152 Art. No. L224108
     doi.org/10.1063/5.0004608

List of optional additional citations

  1. Neese,F.
     Approximate second-order SCF convergence for spin unrestricted wavefunctions
     Chem. Phys. Lett., 2000 325(1-3)93-98
     doi.org/10.1016/s0009-2614(00)00662-x

Timings for individual modules:

Sum of individual times          ...       50.802 sec (=   0.847 min)
Startup calculation              ...        1.937 sec (=   0.032 min)   3.8 %
SCF iterations                   ...       22.556 sec (=   0.376 min)  44.4 %
Property calculations            ...        0.872 sec (=   0.015 min)   1.7 %
SCF Gradient evaluation          ...       25.437 sec (=   0.424 min)  50.1 %
                             ****ORCA TERMINATED NORMALLY****
TOTAL RUN TIME: 0 days 0 hours 0 minutes 53 seconds 153 msec
  ------------------------------------------------------------------------
          * successful ORCA run, taking over control again...

         :::::::::::::::::::::::::::::::::::::::::::::::::::::
         ::                  ORCA SUMMARY                   ::
         :::::::::::::::::::::::::::::::::::::::::::::::::::::
         :: total energy            -746.596531152501 Eh    ::
         :: gradient norm              0.002114284995 Eh/a0 ::
         :: HOMO-LUMO gap              0.000000000000 eV    ::
         :::::::::::::::::::::::::::::::::::::::::::::::::::::

      ----------------------------------------------------------- 
     |                       L-ANC optimizer                     |
      ----------------------------------------------------------- 
          low memory version by Sebastian Ehlert

          ...................................................
          :                      SETUP                      :
          :.................................................:
          :   energy convergence        0.5000000E-05 Eh    :
          :   grad. convergence         0.1000000E-02 Eh/a0 :
          :   optimization log               true           :
          :   writing optlog all                1     steps :
          :   Hessian reset                     8     steps :
          :   maximium step len.        1.0000000     a0    :
          :   LBFGS images                      8           :
          ...................................................
 * calculating model hessian...
Using Lindh-Hessian (1995)
 Shifting diagonal of input Hessian by   1.000000000000000E-002
 Lowest  eigenvalues of input Hessian
    0.000000    0.000000    0.000000    0.000000    0.000000    0.000000
    0.010764    0.011152    0.012466    0.013200    0.014606    0.016937
    0.019494    0.020176    0.020447    0.021521    0.022903    0.024602
 Highest eigenvalues
    1.739330    1.899225    2.002197    2.101771    2.125286    2.481903
 

........................................................................
.............................. CYCLE    1 ..............................
........................................................................
                         * ORCA takes the control...
  ------------------------------------------------------------------------

                                 *****************
                                 * O   R   C   A *
                                 *****************

                                            #,                                       
                                            ###                                      
                                            ####                                     
                                            #####                                    
                                            ######                                   
                                           ########,                                 
                                     ,,################,,,,,                         
                               ,,#################################,,                 
                          ,,##########################################,,             
                       ,#########################################, ''#####,          
                    ,#############################################,,   '####,        
                  ,##################################################,,,,####,       
                ,###########''''           ''''###############################       
              ,#####''   ,,,,##########,,,,          '''####'''          '####       
            ,##' ,,,,###########################,,,                        '##       
           ' ,,###''''                  '''############,,,                           
         ,,##''                                '''############,,,,        ,,,,,,###''
      ,#''                                            '''#######################'''  
     '                                                          ''''####''''         
             ,#######,   #######,   ,#######,      ##                                
            ,#'     '#,  ##    ##  ,#'     '#,    #''#        ,####,   ,####,        
            ##       ##  ##   ,#'  ##            #'  '#       #'       #'  '#        
            ##       ##  #######   ##           ,######,      #####,   #    #        
            '#,     ,#'  ##    ##  '#,     ,#' ,#      #,     #,   #   #,  ,#        
             '#######'   ##     ##  '#######'  #'      '#     '####' # '####'        



                #########################################################
                #                        -***-                          #
                #          Department of theory and spectroscopy        #
                #                                                       #
                #                      Frank Neese                      #
                #                                                       #
                #     Directorship, Architecture, Infrastructure        #
                #                    SHARK, DRIVERS                     #
                #        Core code/Algorithms in most modules           #
                #                                                       #
                #        Max Planck Institute fuer Kohlenforschung      #
                #                Kaiser Wilhelm Platz 1                 #
                #                 D-45470 Muelheim/Ruhr                 #
                #                      Germany                          #
                #                                                       #
                #                  All rights reserved                  #
                #                        -***-                          #
                #########################################################


                         Program Version 6.0.1  -  RELEASE   -


 With contributions from (in alphabetic order):
[Max-Planck-Institut fuer Kohlenforschung]                               
  Daniel Aravena         : Magnetic Suceptibility                        
  Michael Atanasov       : Ab Initio Ligand Field Theory (pilot matlab implementation)
  Alexander A. Auer      : GIAO ZORA, VPT2 properties, NMR spectrum      
  Ute Becker             : All parallelization in ORCA, NUMFREQ, NUMCALC 
  Giovanni Bistoni       : ED, misc. LED, open-shell LED, HFLD           
  Martin Brehm           : Molecular dynamics                            
  Dmytro Bykov           : pre 5.0 version of the SCF Hessian            
  Marcos Casanova-Páez   : Triplet and SCS-CIS(D). UHF-(DLPNO)-IP/EA/STEOM-CCSD. UHF-CVS-IP/STEOM-CCSD   
  Vijay G. Chilkuri      : MRCI spin determinant printing, contributions to CSF-ICE 
  Pauline Colinet        : FMM embedding                                 
  Dipayan Datta          : RHF DLPNO-CCSD density                        
  Achintya Kumar Dutta   : EOM-CC, STEOM-CC                              
  Nicolas Foglia         : Exact transition moments, OPA infrastructure, MCD improvements    
  Dmitry Ganyushin       : Spin-Orbit,Spin-Spin,Magnetic field MRCI      
  Miquel Garcia-Rates    : C-PCM and meta-GGA Hessian, CCSD/C-PCM, Gaussian charge scheme 
  Tiago L. C. Gouveia    : GS-ROHF, GS-ROCIS                             
  Yang Guo               : DLPNO-NEVPT2, F12-NEVPT2, CIM, IAO-localization        
  Andreas Hansen         : Spin unrestricted coupled pair/coupled cluster methods 
  Ingolf Harden          : AUTO-CI MPn and infrastructure                
  Benjamin Helmich-Paris : MC-RPA, TRAH-(SCF,CASSCF), AVAS, COSX integrals, SCF dyn. polar. 
  Lee Huntington         : MR-EOM, pCC                                   
  Robert Izsak           : Overlap fitted RIJCOSX, COSX-SCS-MP3, EOM     
  Riya Kayal             : Wick's Theorem for AUTO-CI, AUTO-CI UHF-CCSDT 
  Emily Kempfer          : AUTO-CI, RHF CISDT and CCSDT                  
  Christian Kollmar      : KDIIS, OOCD, Brueckner-CCSD(T), CCSD density, CASPT2, CASPT2-K, improved NEVPT2 
  Axel Koslowski         : Symmetry handling                             
  Simone Kossmann        : meta-GGA functionals, TD-DFT gradient, OOMP2, (MP2 Hessian; deprecated post 5.0) 
  Lucas Lang             : DCDCAS                                        
  Marvin Lechner         : AUTO-CI (C++ implementation), FIC-MRCC        
  Spencer Leger          : CASSCF response                               
  Dagmar Lenk            : GEPOL surface, SMD, ORCA-2-JSON               
  Dimitrios Liakos       : Extrapolation schemes; Compound Job, initial MDCI parallelization 
  Dimitrios Manganas     : Further ROCIS development; embedding schemes. LFT, Crystal Embedding 
  Dimitrios Pantazis     : SARC Basis sets                               
  Anastasios Papadopoulos: AUTO-CI, single reference methods and gradients 
  Taras Petrenko         : pre 6.0 DFT Hessian and TD-DFT gradient, (ASA, deprecated), ECA, 1-Electron XAS/XES, NRVS 
  Peter Pinski           : DLPNO-MP2, DLPNO-MP2 Gradient                 
  Christoph Reimann      : Effective Core Potentials                     
  Marius Retegan         : Local ZFS, SOC                                
  Christoph Riplinger    : Optimizer, TS searches, QM/MM, DLPNO-CCSD(T), (RO)-DLPNO pert. Triples 
  Michael Roemelt        : Original ROCIS implementation                 
  Masaaki Saitow         : Open-shell DLPNO-CCSD energy and density      
  Barbara Sandhoefer     : DKH picture change effects                    
  Kantharuban Sivalingam : CASSCF convergence/infrastructure, NEVPT2 and variants, FIC-MRCI 
  Bernardo de Souza      : ESD, SOC TD-DFT                               
  Georgi L. Stoychev     : AutoAux, RI-MP2 NMR, DLPNO-MP2 response, X2C  
  Van Anh Tran           : RI-MP2 g-tensors                              
  Willem Van den Heuvel  : Paramagnetic NMR                              
  Zikuan Wang            : NOTCH, Electric field optimization            
  Frank Wennmohs         : Technical directorship and infrastructure     
  Hang Xu                : AUTO-CI-Response properties                   
                                                                         
[FACCTs GmbH]                                                            
  Markus Bursch, Miquel Garcia-Rates, Christoph Riplinger, Bernardo de Souza, Georgi L. Stoychev 
                                                                 
  APM, Basis sets (HGBS, AHGBS, def-TZVP (Ac-Lr), def2-XVPD (La-Lu)), CI-OPT, improved COSX, DLPNO-Multilevel,           
  DOCKER, DRACO, updates on ESD, GOAT, IRC, LR-CPCM, MBIS, meta-GGA TD-DFT gradient, ML-optimized integration grids, 
  MM, NACMEs, nearIR, NEB, NEB-TS, NL-DFT gradient (VV10), 2- and 3-layer-ONIOM, interface openCOSMO-RS, QMMM,   
  Crystal-QMMM, SF, symmetry and pop. for TD-DFT, r2SCAN hybrids, SOLVATOR                                   
                                                                         
[Other institutions]                                                     
  V. Asgeirsson          : NEB                                           
  Christoph Bannwarth    : sTDA-DFT, sTD-DFT, PBEh-3c, B97-3c, D3        
  Sebastian Ehlert       : rSCAN, r2SCAN, r2SCAN-3c, D4, dhf basis sets  
  Marvin Friede          : D4 for Fr, Ra, Ac-Lr                          
  Lars Goerigk           : TD-DFT with DH, B97 family of functionals     
  Stefan Grimme          : VdW corrections, initial TS optimization, DFT functionals, gCP, sTDA/sTD-DF 
  Waldemar Hujo          : DFT-NL                                        
  H. Jonsson             : NEB                                           
  Holger Kruse           : gCP                                           
  Marcel Mueller         : wB97X-3c, vDZP basis set                      
  Hagen Neugebauer       : wr2SCAN                                       
  Tobias Risthaus        : range-separated hybrid DFT                    
  Lukas Wittmann         : regularized MP2, r2SCAN double-hybrids, wr2SCAN        
                                                                         
We gratefully acknowledge several colleagues who have allowed us to      
interface, adapt or use parts of their codes:                            
  Ed Valeev, F. Pavosevic, A. Kumar             : LibInt (2-el integral package), F12 methods 
  Garnet Chan, S. Sharma, J. Yang, R. Olivares  : DMRG                   
  Ulf Ekstrom                                   : XCFun DFT Library      
  Mihaly Kallay                                 : mrcc  (arbitrary order and MRCC methods)
  Frank Weinhold                                : gennbo (NPA and NBO analysis)           
  Simon Mueller                                 : openCOSMO-RS                            
  Christopher J. Cramer and Donald G. Truhlar   : smd solvation model                     
  S Lehtola, MJT Oliveira, MAL Marques          : LibXC Library                           
  Liviu Ungur et al                             : ANISO software                          


 Your calculation uses the libint2 library for the computation of 2-el integrals
 For citations please refer to: http://libint.valeyev.net

 Your ORCA version has been built with support for libXC version: 6.2.2
 For citations please refer to: https://libxc.gitlab.io

 This ORCA versions uses:
   CBLAS   interface :  Fast vector & matrix operations
   LAPACKE interface :  Fast linear algebra routines
   SCALAPACK package :  Parallel linear algebra routines
   Shared memory     :  Shared parallel matrices
   BLAS/LAPACK       :  OpenBLAS 0.3.27  USE64BITINT DYNAMIC_ARCH NO_AFFINITY Zen SINGLE_THREADED
        Core in use  :  Zen
   Copyright (c) 2011-2014, The OpenBLAS Project




***************************************
The coordinates will be read from file: xtb_opt.xyz
***************************************


Your calculation utilizes the geometrical counterpoise correction gCP
Please cite in your paper:
H.Kruse, S. Grimme J.Chem.Phys., 136, (2012), 154101 
   

Your calculation utilizes the atom-pairwise dispersion correction
based on EEQ partial charges (D4)


================================================================================

----- Orbital basis set information -----
Your calculation utilizes the basis: def2-mTZVPP
   Stefan Grimme, Andreas Hansen, Sebastian Ehlert, and Jan-Michael Mewes 
   J. Chem. Phys. 154, 064103 (2021). DOI: 10.1063/5.0040021

----- AuxJ basis set information -----
Your calculation utilizes the auxiliary basis: def2/J
   F. Weigend, Phys. Chem. Chem. Phys. 8, 1057 (2006).

================================================================================
                                        WARNINGS
                       Please study these warnings very carefully!
================================================================================

WARNING: Old DensityContainer found on disk!
         Will remove this file - 
         If you want to keep old densities, please start your calculation with a different basename. 



WARNING: SCAN, rSCAN, or r2SCAN functional requested.
  ===> : libXC variant has now been activated.



================================================================================
                                       INPUT FILE
================================================================================
NAME = xtb_opt.inp
|  1> ! r2scan-3c def2/J RI DEFGRID2 scfconv7 ENGRAD tightSCF miniprint
|  2> * xyzfile 0 1 xtb_opt.xyz
|  3> 
|  4>                          ****END OF INPUT****
================================================================================

                     *******************************
                     * Energy+Gradient Calculation *
                     *******************************

---------------------------------
CARTESIAN COORDINATES (ANGSTROEM)
---------------------------------
  C      2.054673    2.746318    1.086607
  C      1.778174    1.630990    0.100214
  C      2.869619    0.528949    0.068872
  C      2.050758   -0.731771    0.008093
  C      2.387357   -2.053283   -0.237163
  C      1.386906   -3.026590   -0.176827
  C      0.071061   -2.671998    0.115820
  C     -0.261834   -1.346225    0.361998
  C      0.738836   -0.385272    0.318255
  O      0.557823    0.933209    0.572453
  O     -1.564081   -1.006208    0.702258
  C     -2.218458   -0.164342   -0.190830
  O     -1.797705    0.132936   -1.284020
  N     -3.403485    0.209409    0.353571
  C     -4.266519    1.168619   -0.311357
  C      1.466817    2.146154   -1.297813
  H      2.215394    2.340795    2.089272
  H      2.948747    3.300150    0.783955
  H      1.211952    3.442417    1.120584
  H      3.535180    0.655018   -0.790570
  H      3.484094    0.552801    0.978503
  H      3.410402   -2.330175   -0.472138
  H      1.628250   -4.066094   -0.369230
  H     -0.716184   -3.417598    0.147085
  H     -3.553990   -0.008227    1.324504
  H     -5.312696    0.942044   -0.086476
  H     -4.109784    1.086556   -1.388382
  H     -4.051340    2.201585   -0.007917
  H      1.215821    1.312112   -1.960098
  H      2.332183    2.678091   -1.706796
  H      0.612723    2.827582   -1.268198

----------------------------
CARTESIAN COORDINATES (A.U.)
----------------------------
  NO LB      ZA    FRAG     MASS         X           Y           Z
   0 C     6.0000    0    12.011    3.882769    5.189790    2.053389
   1 C     6.0000    0    12.011    3.360262    3.082124    0.189377
   2 C     6.0000    0    12.011    5.422795    0.999568    0.130150
   3 C     6.0000    0    12.011    3.875370   -1.382847    0.015294
   4 C     6.0000    0    12.011    4.511451   -3.880143   -0.448173
   5 C     6.0000    0    12.011    2.620872   -5.719426   -0.334154
   6 C     6.0000    0    12.011    0.134287   -5.049344    0.218868
   7 C     6.0000    0    12.011   -0.494795   -2.543996    0.684078
   8 C     6.0000    0    12.011    1.396197   -0.728059    0.601414
   9 O     8.0000    0    15.999    1.054132    1.763509    1.081779
  10 O     8.0000    0    15.999   -2.955684   -1.901457    1.327075
  11 C     6.0000    0    12.011   -4.192278   -0.310562   -0.360616
  12 O     8.0000    0    15.999   -3.397170    0.251212   -2.426447
  13 N     7.0000    0    14.007   -6.431654    0.395725    0.668151
  14 C     6.0000    0    12.011   -8.062553    2.208370   -0.588380
  15 C     6.0000    0    12.011    2.771882    4.055644   -2.452511
  16 H     1.0000    0     1.008    4.186489    4.423462    3.948152
  17 H     1.0000    0     1.008    5.572324    6.236380    1.481460
  18 H     1.0000    0     1.008    2.290258    6.505225    2.117597
  19 H     1.0000    0     1.008    6.680521    1.237805   -1.493961
  20 H     1.0000    0     1.008    6.583983    1.044642    1.849103
  21 H     1.0000    0     1.008    6.444727   -4.403393   -0.892211
  22 H     1.0000    0     1.008    3.076947   -7.683805   -0.697743
  23 H     1.0000    0     1.008   -1.353392   -6.458324    0.277951
  24 H     1.0000    0     1.008   -6.716068   -0.015547    2.502950
  25 H     1.0000    0     1.008  -10.039540    1.780206   -0.163416
  26 H     1.0000    0     1.008   -7.766366    2.053294   -2.623662
  27 H     1.0000    0     1.008   -7.655924    4.160394   -0.014962
  28 H     1.0000    0     1.008    2.297569    2.479532   -3.704049
  29 H     1.0000    0     1.008    4.407188    5.060859   -3.225378
  30 H     1.0000    0     1.008    1.157878    5.343355   -2.396547

------------------------------------------------------------------------------
                   ___                                                        
                  /   \      - P O W E R E D   B Y -                         
                 /     \                                                     
                 |  |  |   _    _      __       _____    __    __             
                 |  |  |  | |  | |    /  \     |  _  \  |  |  /  |          
                  \  \/   | |  | |   /    \    | | | |  |  | /  /          
                 / \  \   | |__| |  /  /\  \   | |_| |  |  |/  /          
                |  |  |   |  __  | /  /__\  \  |    /   |      \           
                |  |  |   | |  | | |   __   |  |    \   |  |\   \          
                \     /   | |  | | |  |  |  |  | |\  \  |  | \   \       
                 \___/    |_|  |_| |__|  |__|  |_| \__\ |__|  \__/        
                                                                              
                      - O R C A' S   B I G   F R I E N D -                    
                                      &                                       
                       - I N T E G R A L  F E E D E R -                       
                                                                              
 v1 FN, 2020, v2 2021, v3 2022-2024                                           
------------------------------------------------------------------------------


----------------------
SHARK INTEGRAL PACKAGE
----------------------

Number of atoms                             ...     31
Number of basis functions                   ...    399
Number of shells                            ...    193
Maximum angular momentum                    ...      2
Integral batch strategy                     ... SHARK/LIBINT Hybrid
RI-J (if used) integral strategy            ... SPLIT-RIJ (Revised 2003 algorithm where possible)
Printlevel                                  ...      1
Contraction scheme used                     ... SEGMENTED contraction
Prescreening option                         ... SCHWARTZ
   Thresh                                   ... 3.000e-11
   Tcut                                     ... 1.000e-12
   Tpresel                                  ... 1.000e-12 
Coulomb Range Separation                    ... NOT USED
Exchange Range Separation                   ... NOT USED
Multipole approximations                    ... NOT USED
Finite Nucleus Model                        ... NOT USED
CABS basis                                  ... NOT available
Auxiliary Coulomb fitting basis             ... AVAILABLE
   # of basis functions in Aux-J            ...    949
   # of shells in Aux-J                     ...    315
   Maximum angular momentum in Aux-J        ...      4
Auxiliary J/K fitting basis                 ... NOT available
Auxiliary Correlation fitting basis         ... NOT available
Auxiliary 'external' fitting basis          ... NOT available

Checking pre-screening integrals            ... done (  0.0 sec) Dimension = 193
Check shell pair data                       ... done (  0.0 sec)
Shell pair information
Shell pair cut-off parameter TPreSel        ...   1.0e-12
Total number of shell pairs                 ...     18721
Shell pairs after pre-screening             ...     14871
Total number of primitive shell pairs       ...     67925
Primitive shell pairs kept                  ...     35384
          la=0 lb=0:   4659 shell pairs
          la=1 lb=0:   5558 shell pairs
          la=1 lb=1:   1692 shell pairs
          la=2 lb=0:   1743 shell pairs
          la=2 lb=1:   1041 shell pairs
          la=2 lb=2:    178 shell pairs

Calculating one electron integrals          ... done (  0.1 sec)
Calculating RI/J V-Matrix + Cholesky decomp.... done (  0.0 sec)
Calculating Nuclear repulsion               ... done (  0.0 sec) ENN=   1141.421744589162 Eh

Diagonalization of the overlap matrix:
Smallest eigenvalue                        ... 1.655e-05
Time for diagonalization                   ...    0.017 sec
Threshold for overlap eigenvalues          ... 1.000e-07
Number of eigenvalues below threshold      ... 0
Time for construction of square roots      ...    0.011 sec
Total time needed                          ...    0.029 sec

-------------------
DFT GRID GENERATION
-------------------

General Integration Accuracy     IntAcc      ... 4.388
Radial Grid Type                 RadialGrid  ... OptM3 with GC (2021)
Angular Grid (max. ang.)         AngularGrid ... 4 (Lebedev-302)
Angular grid pruning method      GridPruning ... 4 (adaptive)
Weight generation scheme         WeightScheme... mBecke (2022)
Basis function cutoff            BFCut       ... 1.0000e-11
Integration weight cutoff        WCut        ... 1.0000e-14
Partially contracted basis set               ... off
Rotationally invariant grid construction     ... off
Angular grids for H and He will be reduced by one unit
Diffuse basis detected: some atoms will have their outermost
                        angular grid increased by 1.

Total number of grid points                  ...   144635
Total number of batches                      ...     2278
Average number of points per batch           ...       63
Average number of grid points per atom       ...     4666
Initializing property integral containers    ... done (  0.0 sec)

SHARK setup successfully completed in   1.9 seconds

Maximum memory used throughout the entire STARTUP-calculation: 75.8 MB
Occupation numbers will be reassigned to an Aufbau configuration
             **** ENERGY FILE WAS UPDATED (xtb_opt.en.tmp) ****
Finished Guess after   0.2 sec
Maximum memory used throughout the entire GUESS-calculation: 38.6 MB
----------------------------------------D-I-I-S--------------------------------------------
Iteration    Energy (Eh)           Delta-E    RMSDP     MaxDP     DIISErr   Damp  Time(sec)
-------------------------------------------------------------------------------------------
               ***  Starting incremental Fock matrix formation  ***
                              *** Initializing SOSCF ***
---------------------------------------S-O-S-C-F--------------------------------------
Iteration    Energy (Eh)           Delta-E    RMSDP     MaxDP     MaxGrad    Time(sec)
--------------------------------------------------------------------------------------
    1    -746.6038674575493133     0.00e+00  3.27e-05  1.78e-03  4.02e-05    10.0
               *** Restarting incremental Fock matrix formation ***
    2    -746.6038723308111003    -4.87e-06  1.17e-05  4.42e-04  9.05e-05    10.0
    3    -746.6038717919309420     5.39e-07  8.93e-06  5.92e-04  2.09e-04     6.8
    4    -746.6038727866389308    -9.95e-07  3.94e-06  2.34e-04  2.80e-05     6.4
    5    -746.6038727774125618     9.23e-09  2.66e-06  1.49e-04  2.73e-05     5.9
                 **** Energy Check signals convergence ****

               *****************************************************
               *                     SUCCESS                       *
               *           SCF CONVERGED AFTER   5 CYCLES          *
               *****************************************************

             **** ENERGY FILE WAS UPDATED (xtb_opt.en.tmp) ****

----------------
TOTAL SCF ENERGY
----------------

Total Energy       :       -746.60387277741256 Eh          -20316.12423 eV

Components:
Nuclear Repulsion  :       1141.42174458916224 Eh           31059.66471 eV
Electronic Energy  :      -1888.02561736657481 Eh          -51375.78894 eV
One Electron Energy:      -3282.55666937531760 Eh          -89322.90806 eV
Two Electron Energy:       1394.53105200874279 Eh           37947.11912 eV

Virial components:
Potential Energy   :      -1489.92157387234283 Eh          -40542.82718 eV
Kinetic Energy     :        743.31770109493016 Eh           20226.70295 eV
Virial Ratio       :          2.00442095173792

DFT components:
N(Alpha)           :       58.999941857316 electrons
N(Beta)            :       58.999941857316 electrons
N(Total)           :      117.999883714633 electrons
E(X)               :      -99.348417971705 Eh       
E(C)               :       -3.857340893295 Eh       
E(XC)              :     -103.205758865000 Eh       

---------------
SCF CONVERGENCE
---------------

  Last Energy change         ...   -9.2264e-09  Tolerance :   1.0000e-07
  Last MAX-Density change    ...    1.4874e-04  Tolerance :   1.0000e-07
  Last RMS-Density change    ...    2.6647e-06  Tolerance :   5.0000e-09
  Last DIIS Error            ...    4.8657e-04  Tolerance :   1.0000e-07
  Last Orbital Gradient      ...    2.7251e-05  Tolerance :   1.0000e-04
  Last Orbital Rotation      ...    4.6224e-05  Tolerance :   1.0000e-04


----------------
ORBITAL ENERGIES
----------------

  NO   OCC          E(Eh)            E(eV) 
   0   2.0000     -18.994896      -516.8774 
   1   2.0000     -18.974884      -516.3328 
   2   2.0000     -18.918692      -514.8038 
   3   2.0000     -14.190161      -386.1339 
   4   2.0000     -10.171094      -276.7695 
   5   2.0000     -10.103818      -274.9389 
   6   2.0000     -10.088778      -274.5296 
   7   2.0000     -10.083404      -274.3834 
   8   2.0000     -10.068570      -273.9797 
   9   2.0000     -10.044151      -273.3152 
  10   2.0000     -10.038133      -273.1515 
  11   2.0000     -10.033474      -273.0247 
  12   2.0000     -10.032965      -273.0108 
  13   2.0000     -10.029199      -272.9084 
  14   2.0000     -10.028367      -272.8857 
  15   2.0000     -10.020759      -272.6787 
  16   2.0000      -1.067312       -29.0430 
  17   2.0000      -1.027294       -27.9541 
  18   2.0000      -0.979332       -26.6490 
  19   2.0000      -0.896070       -24.3833 
  20   2.0000      -0.817771       -22.2527 
  21   2.0000      -0.779693       -21.2165 
  22   2.0000      -0.734050       -19.9745 
  23   2.0000      -0.711440       -19.3593 
  24   2.0000      -0.674594       -18.3566 
  25   2.0000      -0.662925       -18.0391 
  26   2.0000      -0.653348       -17.7785 
  27   2.0000      -0.592821       -16.1315 
  28   2.0000      -0.571981       -15.5644 
  29   2.0000      -0.549883       -14.9631 
  30   2.0000      -0.537664       -14.6306 
  31   2.0000      -0.523056       -14.2331 
  32   2.0000      -0.469979       -12.7888 
  33   2.0000      -0.454312       -12.3624 
  34   2.0000      -0.448796       -12.2124 
  35   2.0000      -0.443662       -12.0727 
  36   2.0000      -0.435973       -11.8634 
  37   2.0000      -0.427585       -11.6352 
  38   2.0000      -0.412243       -11.2177 
  39   2.0000      -0.406335       -11.0570 
  40   2.0000      -0.387778       -10.5520 
  41   2.0000      -0.386483       -10.5167 
  42   2.0000      -0.378267       -10.2932 
  43   2.0000      -0.371959       -10.1215 
  44   2.0000      -0.369321       -10.0497 
  45   2.0000      -0.362711        -9.8699 
  46   2.0000      -0.351082        -9.5534 
  47   2.0000      -0.345834        -9.4106 
  48   2.0000      -0.337667        -9.1884 
  49   2.0000      -0.327688        -8.9168 
  50   2.0000      -0.325370        -8.8538 
[...]
  63   0.0000       0.075561         2.0561 
  64   0.0000       0.080708         2.1962 
  65   0.0000       0.089416         2.4331 
  66   0.0000       0.103595         2.8190 
  67   0.0000       0.108258         2.9458 
  68   0.0000       0.118113         3.2140 
  69   0.0000       0.120903         3.2899 
*Only the first 10 virtual orbitals were printed.
Total SCF time: 0 days 0 hours 0 min 28 sec 
Finished LeanSCF after  28.7 sec

Maximum memory used throughout the entire LEANSCF-calculation: 54.2 MB


-------------------------------------------------------------------------------
                          DFT DISPERSION CORRECTION                            
                                                                               
                                DFTD4 V3.4.0                                   
-------------------------------------------------------------------------------
-------------------------   ----------------
Dispersion correction           -0.012298470
-------------------------   ----------------

------------------   -----------------
gCP correction             0.019633706
------------------   -----------------

-------------------------   --------------------
FINAL SINGLE POINT ENERGY      -746.596544649191
-------------------------   --------------------

------------------------------------------------------------------------------
                         ORCA SCF GRADIENT CALCULATION
------------------------------------------------------------------------------

Nuc. rep. gradient        (SHARK) ... done (  0.0 sec)
HCore & Overlap gradient  (SHARK) ... done (  1.1 sec)
Split-RIJ-J gradient      (SHARK) ... done (  6.2 sec)
XC gradient                       ... done ( 16.5 sec)
Dispersion correction             ... done (  0.0 sec)

-------------------
DISPERSION GRADIENT
-------------------

   1   C   :    0.000045767    0.000117674    0.000061593
   2   C   :    0.000063079    0.000093317    0.000010013
   3   C   :    0.000114423    0.000037041    0.000005207
   4   C   :    0.000098611   -0.000059697    0.000005695
   5   C   :    0.000097340   -0.000125917   -0.000013741
   6   C   :    0.000039078   -0.000151550   -0.000010304
   7   C   :   -0.000015653   -0.000153285    0.000013393
   8   C   :   -0.000048993   -0.000110113    0.000036009
   9   C   :    0.000025967   -0.000040277    0.000030587
  10   O   :    0.000025971    0.000066612    0.000043277
  11   O   :   -0.000088145   -0.000052091    0.000048246
  12   C   :   -0.000149480   -0.000008355   -0.000003682
  13   O   :   -0.000117720    0.000003739   -0.000091443
  14   N   :   -0.000126554    0.000014186    0.000027410
  15   C   :   -0.000089862    0.000044103   -0.000014464
  16   C   :    0.000044807    0.000122058   -0.000094288
  17   H   :    0.000013856    0.000041549    0.000043948
  18   H   :    0.000015959    0.000041005    0.000019631
  19   H   :    0.000004202    0.000050427    0.000026444
  20   H   :    0.000050849    0.000009108   -0.000019095
  21   H   :    0.000049094    0.000009386    0.000024382
  22   H   :    0.000044025   -0.000040095   -0.000011406
  23   H   :    0.000011275   -0.000046301   -0.000007900
  24   H   :   -0.000015463   -0.000055814    0.000004073
  25   H   :   -0.000036286    0.000007005    0.000011548
  26   H   :   -0.000023448    0.000010722   -0.000000092
  27   H   :   -0.000028889    0.000011991   -0.000009760
  28   H   :   -0.000033145    0.000019498    0.000000372
  29   H   :    0.000013494    0.000046186   -0.000059695
  30   H   :    0.000010664    0.000040213   -0.000039491
  31   H   :    0.000005175    0.000057676   -0.000036466

Difference to translation invariance:
           :   -0.0000000000   -0.0000000000   -0.0000000000

Difference to rotation invariance:
           :   -0.0000000000    0.0000000000    0.0000000000

Norm of the Dispersion gradient    ...    0.0005607011
RMS gradient                       ...    0.0000581420
MAX gradient                       ...    0.0001532855
gCP correction                   ... done

------------------
CARTESIAN GRADIENT
------------------

   1   C   :   -0.000056605   -0.000001055    0.000188897
   2   C   :    0.000034790   -0.000087911   -0.000001014
   3   C   :   -0.000086366   -0.000031314    0.000032391
   4   C   :    0.000052261    0.000024146    0.000036554
   5   C   :    0.000041578   -0.000015922   -0.000006250
   6   C   :   -0.000212501   -0.000033755    0.000039724
   7   C   :    0.000020438    0.000015153    0.000003359
   8   C   :    0.000066853    0.000009562    0.000013870
   9   C   :   -0.000233307    0.000144173    0.000093641
  10   O   :    0.000043348   -0.000143609   -0.000102103
  11   O   :    0.000056242   -0.000005794   -0.000232674
  12   C   :   -0.000283883   -0.000031245    0.000661080
  13   O   :    0.000011954    0.000034970   -0.000239689
  14   N   :    0.000156739    0.000088569   -0.000315996
  15   C   :   -0.000023095   -0.000177806    0.000045007
  16   C   :    0.000021570    0.000055484   -0.000085668
  17   H   :    0.000034718    0.000005855   -0.000066862
  18   H   :    0.000062607    0.000042555   -0.000051032
  19   H   :    0.000003132    0.000021917   -0.000006816
  20   H   :    0.000011992   -0.000018966   -0.000035261
  21   H   :    0.000022593    0.000018102    0.000009697
  22   H   :    0.000031843    0.000012226   -0.000003218
  23   H   :    0.000058044    0.000015244   -0.000013394
  24   H   :   -0.000001324    0.000040680    0.000018512
  25   H   :    0.000064840   -0.000008568    0.000023070
  26   H   :    0.000043485   -0.000010201   -0.000035318
  27   H   :    0.000020322    0.000029108    0.000027642
  28   H   :   -0.000021773   -0.000009032    0.000010705
  29   H   :    0.000004354    0.000002578   -0.000010432
  30   H   :    0.000033162   -0.000013339    0.000022389
  31   H   :    0.000021989    0.000028196   -0.000020811

Difference to translation invariance:
           :   -0.0000000000   -0.0000000000    0.0000000000

Difference to rotation invariance:
           :   -0.0003572071   -0.0002025231   -0.0001985329

Norm of the Cartesian gradient     ...    0.0010415562
RMS gradient                       ...    0.0001080043
MAX gradient                       ...    0.0006610799

-------
TIMINGS
-------

Total SCF gradient time     ....       23.802 sec

Densities                   ....       0.002 sec  (  0.0%)
One electron gradient       ....       1.105 sec  (  4.6%)
RI-J Coulomb gradient       ....       6.196 sec  ( 26.0%)
XC gradient                 ....      16.462 sec  ( 69.2%)

Maximum memory used throughout the entire SCFGRAD-calculation: 63.8 MB

------------------------------------------------------------------------------
                              ORCA PROPERTY CALCULATIONS
------------------------------------------------------------------------------

GBWName                                 ... xtb_opt.gbw
Number of atoms                         ...     31
Number of basis functions               ...    399
Max core memory                         ...   1024 MB

Electric properties:
Dipole moment                           ... YES
Quadrupole moment                       ...  NO
Static polarizability (Dipole/Dipole)   ...  NO
Static polarizability (Dipole/Quad.)    ...  NO
Static polarizability (Quad./Quad.)     ...  NO
Static polarizability (Velocity)        ...  NO

Atomic electric properties:
Dipole moment                           ...  NO
Quadrupole moment                       ...  NO
Static polarizability                   ...  NO

Choice of electric origin               ... Center of mass
Position of electric origin             ...     0.077799    -0.089970     0.013714

General magnetic properties:
Magnetizability                         ...  NO

EPR properties:
g-Tensor (aka g-matrix)                 ...  NO
Zero-Field splitting spin-orbit         ...  NO
Zero-field splitting spin-spin          ...  NO
Hyperfine couplings                     ...  NO (   0 nuclei)
Quadrupole couplings                    ...  NO (   0 nuclei)
Contact density                         ...  NO (   0 nuclei)

NMR properties:
Chemical shifts                         ...  NO (   0 nuclei)
Spin-rotation constants                 ...  NO (   0 nuclei)
Spin-spin couplings                     ...  NO (   0 nuclei,    0 pairs)

Choice of magnetic origin               ... GIAO
Position of magnetic origin             ...     0.000000     0.000000     0.000000

Properties with geometric perturbations:
SCF Hessian                             ...  NO
IR spectrum                             ...  NO
VCD spectrum                            ...  NO
X-ray spectroscopy properties:
SCF XES/XAS/RIXS spectra                ...  NO


-------------
DIPOLE MOMENT
-------------

Method             : SCF
Type of density    : Electron Density
Multiplicity       :   1
Irrep              :   0
Energy             :  -746.6038798849749583 Eh
Relativity type    : 
Basis              : AO
                                X                 Y                 Z
Electronic contribution:     -3.930927382     -10.872487968       2.166112974
Nuclear contribution   :      3.911994071      11.487509278      -1.627523238
                        -----------------------------------------
Total Dipole Moment    :     -0.018933311       0.615021310       0.538589736
                        -----------------------------------------
Magnitude (a.u.)       :      0.817733811
Magnitude (Debye)      :      2.078514165



--------------------
Rotational spectrum 
--------------------
 
Rotational constants in cm-1:             0.024326             0.014847             0.010362 
Rotational constants in MHz :           729.275851           445.106751           310.638706 

Dipole components along the rotational axes: 
x,y,z [a.u.] :     0.005860     0.613720     0.540372 
x,y,z [Debye]:     0.014895     1.559952     1.373518 

 

Dipole moment calculation done in   0.0 sec 

Maximum memory used throughout the entire PROP-calculation: 36.5 MB

--------------------------------
SUGGESTED CITATIONS FOR THIS RUN
--------------------------------

Below you find a list of papers that are relevant to this ORCA run
We neither can nor want to force you to cite these papers, but we appreciate if you do
You receive ORCA, which is the product of decades of hard work by many enthusiastic individuals, for free
The only thing we kindly ask in return is that you cite our papers,
We deeply appreciate it, if you show your appreciation for ORCA by not just citing the generic ORCA reference.

Please note that relegating all ORCA citations to the supporting information does *not* help us.
SI sections are not indexed - citations you put there will not count into any citation statistics
But we need these citations in order to attract the funding resources that allow us to do what we are doing

Therefore, if you are a happy ORCA user, please consider citing a few of the papers listed below in the main body of your paper

In addition to the list printed below, the program has created the file xtb_opt.bibtex that contains the list in bibtex format
You can import this file easily into all common literature databanks and citation aid programs


List of essential papers. We consider these as the minimum necessary citations

  1. Neese,F.
     Software update: the ORCA program system, version 5.0
     WIRES Comput. Molec. Sci., 2022 12(1)e1606
     doi.org/10.1002/wcms.1606
  2. Grimme,S.; Hansen,A.; Ehlert,S.; Mewes,J.
     r2SCAN-3c: A 'Swiss army knife' composite electronic-structure method
     J. Chem. Phys., 2021 154 064103
     doi.org/10.1063/5.0040021

List of papers to cite with high priority. The work reported in these papers was absolutely
necessary for this run to complete.
Our perspective: the developers of density functionals and basis sets usually get cited in chemistry papers
Good! But without the algorithms to do something with them, the functionals or basis sets would not do anything.
Hence, in our opinion, the algorithm design and method developments papers are equally worthy of getting cited

  1. Neese,F.
     An improvement of the resolution of the identity approximation for the formation of the Coulomb matrix
     J. Comp. Chem., 2003 24(14)1740-1747
     doi.org/10.1002/jcc.10318
  2. Neese,F.
     The SHARK Integral Generation and Digestion System
     J. Comp. Chem., 2022  1-16
     doi.org/10.1002/jcc.26942
  3. Lehtola,S.; Steigemann,C.; Oliveira,M.; Marques,M.
     Recent developments in Libxc - A comprehensive library of functionals for density functional theory
     Software X, 2018 7 
     doi.org/10.1016/j.softx.2017.11.002
  4. Caldeweyher,E.; Bannwarth,C.; Grimme,S.
     Extension of the D3 dispersion coefficient model
     J. Chem. Phys., 2017 147 034112
     doi.org/10.1063/1.4993215
  5. Caldeweyher,E.; Ehlert,S.; Hansen,A.; Neugebauer,H.; Spicher,S.; Bannwarth,C.; Grimme,S.
     A generally applicable atomic-charge dependent London dispersion correction
     J. Chem. Phys., 2019 150 154122
     doi.org/10.1063/1.5090222
  6. Caldeweyher,E.; Mewes,J.; Ehlert,S.; Grimme,S.
     Extension and evaluation of the D4 London-dispersion model for periodic systems
     Phys. Chem. Chem. Phys., 2020 22(16)8499-8512
     doi.org/10.1039/D0CP00502A
  7. Wittmann,L.; Gordiy,I.; Friede,M.; Helmich-Paris,B.; Grimme,S.; Hansen,A.; Bursch,M.
     Extension of the D3 and D4 London Dispersion Corrections to the full Actinides Series
     Phys. Chem. Chem. Phys., 2024 26(32)21379-21394
     doi.org/https://doi.org/10.1039/D4CP01514B 

List of suggested additional citations. These are papers that are important in the 'surrounding' of 
of this run, or papers that preceded the highly important papers. If you like your results we are grateful for a citation.

  1. Neese,F.
     The ORCA program system
     WIRES Comput. Molec. Sci., 2012 2(1)73-78
     doi.org/10.1002/wcms.81
  2. Neese,F.
     Software update: the ORCA program system, version 4.0
     WIRES Comput. Molec. Sci., 2018 8(1)1-6
     doi.org/10.1002/wcms.1327
  3. Neese,F.; Wennmohs,F.; Becker,U.; Riplinger,C.
     The ORCA quantum chemistry program package
     J. Chem. Phys., 2020 152 Art. No. L224108
     doi.org/10.1063/5.0004608

List of optional additional citations

  1. Neese,F.
     Approximate second-order SCF convergence for spin unrestricted wavefunctions
     Chem. Phys. Lett., 2000 325(1-3)93-98
     doi.org/10.1016/s0009-2614(00)00662-x

Timings for individual modules:

Sum of individual times          ...       55.037 sec (=   0.917 min)
Startup calculation              ...        1.953 sec (=   0.033 min)   3.5 %
SCF iterations                   ...       29.092 sec (=   0.485 min)  52.9 %
Property calculations            ...        0.095 sec (=   0.002 min)   0.2 %
SCF Gradient evaluation          ...       23.897 sec (=   0.398 min)  43.4 %
                             ****ORCA TERMINATED NORMALLY****
TOTAL RUN TIME: 0 days 0 hours 0 minutes 55 seconds 454 msec
  ------------------------------------------------------------------------
          * successful ORCA run, taking over control again...

         :::::::::::::::::::::::::::::::::::::::::::::::::::::
         ::                  ORCA SUMMARY                   ::
         :::::::::::::::::::::::::::::::::::::::::::::::::::::
         :: total energy            -746.596544649191 Eh    ::
         :: gradient norm              0.001041556222 Eh/a0 ::
         :: HOMO-LUMO gap              0.000000000000 eV    ::
         :::::::::::::::::::::::::::::::::::::::::::::::::::::

           -------------------------------------------------
          |                Property Printout                |
           -------------------------------------------------
           -------------------------------------------------
          |                Geometry Summary                 |
           -------------------------------------------------

      molecular mass/u    :      221.2528600
   center of mass at/Å    :        0.0411586      -0.0476113       0.0072572
  moments of inertia/u·Å² :        0.6929723E+03   0.1135388E+04   0.1626867E+04
rotational constants/cm⁻¹ :        0.2432656E-01   0.1484746E-01   0.1036202E-01

 * 29 selected distances

     #   Z          #   Z                                           value/Å
     1   6 C        2   6 C                                       1.5147029
     4   6 C        5   6 C                                       1.3853849
     5   6 C        6   6 C                                       1.3972610
     6   6 C        7   6 C                                       1.3935022
     7   6 C        8   6 C                                       1.3890565
     4   6 C        9   6 C                                       1.3920726
     8   6 C        9   6 C                                       1.3879264
     9   6 C       10   8 O                                       1.3547530
     8   6 C       11   8 O                                       1.3881744
    11   8 O       12   6 C                                       1.3896910
    12   6 C       13   8 O                                       1.2090311
    12   6 C       14   7 N                                       1.3560313
    14   7 N       15   6 C                                       1.4512128
     2   6 C       16   6 C                                       1.5223609 (max)
     1   6 C       17   1 H                                       1.0932711
     1   6 C       18   1 H                                       1.0946295
     1   6 C       19   1 H                                       1.0935783
     3   6 C       20   1 H                                       1.0943711
     3   6 C       21   1 H                                       1.0980173
     5   6 C       22   1 H                                       1.0856003
     6   6 C       23   1 H                                       1.0843479
     7   6 C       24   1 H                                       1.0847028
    14   7 N       25   1 H                                       1.0064231 (min)
    15   6 C       26   1 H                                       1.0935784
    15   6 C       27   1 H                                       1.0914056
    15   6 C       28   1 H                                       1.0979456
    16   6 C       29   1 H                                       1.0941769
    16   6 C       30   1 H                                       1.0949738
    16   6 C       31   1 H                                       1.0930186

 * 5 distinct bonds (by element types)

   Z      Z             #   av. dist./Å        max./Å        min./Å
   1 H    6 C          14     1.0924012     1.0980173     1.0843479
   6 C    6 C           8     1.4227834     1.5223609     1.3853849
   1 H    7 N           1     1.0064231     1.0064231     1.0064231
   6 C    7 N           2     1.4036221     1.4512128     1.3560313
   6 C    8 O           4     1.3354124     1.3896910     1.2090311


optimized geometry written to: xtbopt.coord


           -------------------------------------------------
          | TOTAL ENERGY             -746.596544649191 Eh   |
          | GRADIENT NORM               0.001041556222 Eh/α |
           -------------------------------------------------

------------------------------------------------------------------------
 * finished run on 2025/04/15 at 21:26:35.663     
------------------------------------------------------------------------
 total:
 * wall-time:     0 d,  0 h,  4 min, 57.335 sec
 *  cpu-time:     0 d,  0 h,  0 min, 16.447 sec
 * ratio c/w:     0.055 speedup
 SCF:
 * wall-time:     0 d,  0 h,  0 min, 53.281 sec
 *  cpu-time:     0 d,  0 h,  0 min,  3.045 sec
 * ratio c/w:     0.057 speedup
 ANC optimizer:
 * wall-time:     0 d,  0 h,  4 min,  3.823 sec
 *  cpu-time:     0 d,  0 h,  0 min, 10.091 sec
 * ratio c/w:     0.041 speedup

