31
 energy: -746.596531152501 gnorm: 0.002114284995 xtb: 6.7.1 (edcfbbe)
C            2.05446863834913        2.74622141827982        1.08695174176518
C            1.77905938721726        1.63148035354137        0.09991680247364
C            2.87013438776476        0.52898595687236        0.06833937292912
C            2.05124300636785       -0.73180685160855        0.00691638362680
C            2.38757172276749       -2.05362769673805       -0.23726877666065
C            1.38694883494262       -3.02665871593999       -0.17645442657278
C            0.07103469249196       -2.67166414925322        0.11600279229241
C           -0.26164185355598       -1.34573065494342        0.36139219684210
C            0.73940840207347       -0.38512745026297        0.31681920207414
O            0.55857298679797        0.93350446856456        0.57123704357999
O           -1.56361692840695       -1.00497968312752        0.70246275973173
C           -2.21904710136906       -0.16490025497081       -0.19212168261701
O           -1.79817893059166        0.13211508481341       -1.28497728246401
N           -3.40378177557110        0.20968652933645        0.35358275493417
C           -4.26764080137342        1.16876055298456       -0.31083598356615
C            1.46778984912622        2.14628437669884       -1.29806762765308
H            2.21534581641369        2.34031630837515        2.08961257922458
H            2.94759791319287        3.30140313561937        0.78495242856118
H            1.21073541955565        3.44090147979661        1.12167575935536
H            3.53632885870554        0.65548847264649       -0.79044495907859
H            3.48385996074917        0.55217229216284        0.97842928157804
H            3.41058435468534       -2.33109450498884       -0.47155891853569
H            1.62772684780655       -4.06654206791401       -0.36772917142394
H           -0.71613495014080       -3.41737258231653        0.14756944404433
H           -3.55388388068256       -0.00792275702034        1.32453887857492
H           -5.31385941379158        0.94118903996054       -0.08580094818489
H           -4.11090436809813        1.08646564432632       -1.38796600249035
H           -4.05295693592552        2.20175662868893       -0.00687535850292
H            1.21566729235527        1.31263690297530       -1.96045287179891
H            2.33365437210477        2.67719073492950       -1.70738001539373
H            0.61460924266815        2.82881954798268       -1.26823611046751
31
 energy: -746.596536497276 gnorm: 0.000918635528 xtb: 6.7.1 (edcfbbe)
C            2.05467304371291        2.74631836019168        1.08660685677405
C            1.77817395897979        1.63098977395641        0.10021424280891
C            2.86961940331551        0.52894871450616        0.06887231346090
C            2.05075772027155       -0.73177134836884        0.00809339678319
C            2.38735685425904       -2.05328305773923       -0.23716290699679
C            1.38690592884689       -3.02658970050244       -0.17682667624991
C            0.07106136520322       -2.67199785315232        0.11582008837177
C           -0.26183403357392       -1.34622455529421        0.36199829152674
C            0.73883583684948       -0.38527208363090        0.31825457228261
O            0.55782279098013        0.93320884033573        0.57245299814921
O           -1.56408069274621       -1.00620780671941        0.70225772296682
C           -2.21845795808795       -0.16434210005336       -0.19082990140210
O           -1.79770476019381        0.13293573757179       -1.28402024851487
N           -3.40348472850089        0.20940859783696        0.35357051577104
C           -4.26651916127420        1.16861887169351       -0.31135744644123
C            1.46681697166503        2.14615442518371       -1.29781276340451
H            2.21539437449977        2.34079536669553        2.08927206767094
H            2.94874661035149        3.30015003093532        0.78395505108566
H            1.21195211428458        3.44241657677890        1.12058389417496
H            3.53517969029434        0.65501842291075       -0.79057018520351
H            3.48409379722162        0.55280072885880        0.97850299272309
H            3.41040246391121       -2.33017523066497       -0.47213755430110
H            1.62825038915252       -4.06609425472077       -0.36922965104800
H           -0.71618400616361       -3.41759803682367        0.14708518131096
H           -3.55399021823748       -0.00822729646277        1.32450385740653
H           -5.31269566681192        0.94204435083993       -0.08647611741680
H           -4.10978404978687        1.08655631989570       -1.38838202398869
H           -4.05134042652387        2.20158548616193       -0.00791735096585
H            1.21582091776540        1.31211169463253       -1.96009833311801
H            2.33218322974162        2.67809114960515       -1.70679642458547
H            0.61272268174943        2.82758187998000       -1.26819786395323
31
 energy: -746.596541705520 gnorm: 0.001360425895 xtb: 6.7.1 (edcfbbe)
C            2.05515482912028        2.74716598165482        1.08621261772293
C            1.77616361152639        1.63053543739488        0.10133100307213
C            2.86788953740802        0.52905525410194        0.06981675998145
C            2.04966572231648       -0.73183815160265        0.01102524337740
C            2.38693800611687       -2.05248272355516       -0.23696573926157
C            1.38706429127367       -3.02655317922530       -0.17787010316331
C            0.07150632707793       -2.67297889501465        0.11574264030566
C           -0.26207331600590       -1.34751692286229        0.36373973273555
C            0.73763231136601       -0.38554244205187        0.32166617784606
O            0.55643881256526        0.93269571266678        0.57553505564037
O           -1.56539136949207       -1.00990493972543        0.70165839399017
C           -2.21798356735505       -0.16577767469381       -0.18913096533104
O           -1.79545872234364        0.13498979237012       -1.28134939981825
N           -3.40289080620167        0.20849292468153        0.35309777973237
C           -4.26268146913573        1.16950500911587       -0.31258205344594
C            1.46316303076779        2.14483690519312       -1.29701982910492
H            2.21482807533098        2.34300513026652        2.08931528666419
H            2.95181282988306        3.29672849587638        0.78192493660134
H            1.21540165169320        3.44714059528827        1.11792275724366
H            3.53168441512991        0.65410412559308       -0.79126933094284
H            3.48422356170717        0.55483147333233        0.97820715126125
H            3.41001990696882       -2.32783085871500       -0.47361655947016
H            1.62965547880006       -4.06517367169981       -0.37310613887333
H           -0.71610510022501       -3.41823435584769        0.14562377594463
H           -3.55477633551261       -0.00936744964036        1.32388544705970
H           -5.30912497792921        0.94641033171615       -0.08736119862830
H           -4.10627502151085        1.08646263511284       -1.38942625717754
H           -4.04450437697465        2.20224996705354       -0.01073628330846
H            1.21559028960396        1.30994750620043       -1.95950992463489
H            2.32681863980312        2.68017208173311       -1.70501287079490
H            0.60630587680071        2.82282580274692       -1.26752071607350
31
 energy: -746.596544666463 gnorm: 0.000997815331 xtb: 6.7.1 (edcfbbe)
C            2.05521355366027        2.74776812313070        1.08577590242922
C            1.77531968249413        1.63048428732588        0.10207843156408
C            2.86724706058694        0.52929662211099        0.06992988050240
C            2.04950896842128       -0.73195722547583        0.01207785935188
C            2.38705222717189       -2.05229971675153       -0.23702312663980
C            1.38738747331654       -3.02676437849763       -0.17848216684629
C            0.07182673650465       -2.67350989363725        0.11538714265364
C           -0.26193761046560       -1.34834249832106        0.36440607739604
C            0.73747793706366       -0.38614823872172        0.32329538052221
O            0.55640210161784        0.93210602898714        0.57779984054652
O           -1.56573049010991       -1.01146672102431        0.70155074925552
C           -2.21668606837928       -0.16552255459083       -0.18832342616310
O           -1.79324639840123        0.13605435118644       -1.27988481440500
N           -3.40251544798972        0.20839501831185        0.35280041469117
C           -4.26066830892194        1.17057361369156       -0.31338589300255
C            1.46037187619532        2.14357673956399       -1.29617987822227
H            2.21354923923125        2.34465097624492        2.08960250672930
H            2.95295863972364        3.29511835816447        0.78135035514064
H            1.21684445787727        3.44928031151985        1.11628998371624
H            3.53020647821477        0.65430564254025       -0.79175764648298
H            3.48436590720418        0.55561284718072        0.97773691873794
H            3.41014631468120       -2.32707749799559       -0.47430641952260
H            1.63021571664435       -4.06521751944100       -0.37459343703252
H           -0.71583839348079       -3.41870773957723        0.14443501542760
H           -3.55574956175587       -0.00973571017460        1.32327740095843
H           -5.30766993114868        0.94980302411866       -0.08763937893910
H           -4.10447175708598        1.08604576212201       -1.39024415646652
H           -4.03990818707713        2.20307448917102       -0.01223621755161
H            1.21482062892817        1.30810567347372       -1.95868694151239
H            2.32247537563359        2.68121274454352       -1.70445986231703
H            0.60172229281964        2.81924036095596       -1.26636372943749
31
 energy: -746.596544666463 gnorm: 0.000997815331 xtb: 6.7.1 (edcfbbe)
C            2.05521355366027        2.74776812313070        1.08577590242922
C            1.77531968249413        1.63048428732588        0.10207843156408
C            2.86724706058694        0.52929662211099        0.06992988050240
C            2.04950896842128       -0.73195722547583        0.01207785935188
C            2.38705222717189       -2.05229971675153       -0.23702312663980
C            1.38738747331654       -3.02676437849763       -0.17848216684629
C            0.07182673650465       -2.67350989363725        0.11538714265364
C           -0.26193761046560       -1.34834249832106        0.36440607739604
C            0.73747793706366       -0.38614823872172        0.32329538052221
O            0.55640210161784        0.93210602898714        0.57779984054652
O           -1.56573049010991       -1.01146672102431        0.70155074925552
C           -2.21668606837928       -0.16552255459083       -0.18832342616310
O           -1.79324639840123        0.13605435118644       -1.27988481440500
N           -3.40251544798972        0.20839501831185        0.35280041469117
C           -4.26066830892194        1.17057361369156       -0.31338589300255
C            1.46037187619532        2.14357673956399       -1.29617987822227
H            2.21354923923125        2.34465097624492        2.08960250672930
H            2.95295863972364        3.29511835816447        0.78135035514064
H            1.21684445787727        3.44928031151985        1.11628998371624
H            3.53020647821477        0.65430564254025       -0.79175764648298
H            3.48436590720418        0.55561284718072        0.97773691873794
H            3.41014631468120       -2.32707749799559       -0.47430641952260
H            1.63021571664435       -4.06521751944100       -0.37459343703252
H           -0.71583839348079       -3.41870773957723        0.14443501542760
H           -3.55574956175587       -0.00973571017460        1.32327740095843
H           -5.30766993114868        0.94980302411866       -0.08763937893910
H           -4.10447175708598        1.08604576212201       -1.39024415646652
H           -4.03990818707713        2.20307448917102       -0.01223621755161
H            1.21482062892817        1.30810567347372       -1.95868694151239
H            2.32247537563359        2.68121274454352       -1.70445986231703
H            0.60172229281964        2.81924036095596       -1.26636372943749
