
                                 *****************
                                 * O   R   C   A *
                                 *****************

                                            #,                                       
                                            ###                                      
                                            ####                                     
                                            #####                                    
                                            ######                                   
                                           ########,                                 
                                     ,,################,,,,,                         
                               ,,#################################,,                 
                          ,,##########################################,,             
                       ,#########################################, ''#####,          
                    ,#############################################,,   '####,        
                  ,##################################################,,,,####,       
                ,###########''''           ''''###############################       
              ,#####''   ,,,,##########,,,,          '''####'''          '####       
            ,##' ,,,,###########################,,,                        '##       
           ' ,,###''''                  '''############,,,                           
         ,,##''                                '''############,,,,        ,,,,,,###''
      ,#''                                            '''#######################'''  
     '                                                          ''''####''''         
             ,#######,   #######,   ,#######,      ##                                
            ,#'     '#,  ##    ##  ,#'     '#,    #''#        ,####,   ,####,        
            ##       ##  ##   ,#'  ##            #'  '#       #'       #'  '#        
            ##       ##  #######   ##           ,######,      #####,   #    #        
            '#,     ,#'  ##    ##  '#,     ,#' ,#      #,     #,   #   #,  ,#        
             '#######'   ##     ##  '#######'  #'      '#     '####' # '####'        



                #########################################################
                #                        -***-                          #
                #          Department of theory and spectroscopy        #
                #                                                       #
                #                      Frank Neese                      #
                #                                                       #
                #     Directorship, Architecture, Infrastructure        #
                #                    SHARK, DRIVERS                     #
                #        Core code/Algorithms in most modules           #
                #                                                       #
                #        Max Planck Institute fuer Kohlenforschung      #
                #                Kaiser Wilhelm Platz 1                 #
                #                 D-45470 Muelheim/Ruhr                 #
                #                      Germany                          #
                #                                                       #
                #                  All rights reserved                  #
                #                        -***-                          #
                #########################################################


                         Program Version 6.0.1  -  RELEASE   -


 With contributions from (in alphabetic order):
[Max-Planck-Institut fuer Kohlenforschung]                               
  Daniel Aravena         : Magnetic Suceptibility                        
  Michael Atanasov       : Ab Initio Ligand Field Theory (pilot matlab implementation)
  Alexander A. Auer      : GIAO ZORA, VPT2 properties, NMR spectrum      
  Ute Becker             : All parallelization in ORCA, NUMFREQ, NUMCALC 
  Giovanni Bistoni       : ED, misc. LED, open-shell LED, HFLD           
  Martin Brehm           : Molecular dynamics                            
  Dmytro Bykov           : pre 5.0 version of the SCF Hessian            
  Marcos Casanova-Páez   : Triplet and SCS-CIS(D). UHF-(DLPNO)-IP/EA/STEOM-CCSD. UHF-CVS-IP/STEOM-CCSD   
  Vijay G. Chilkuri      : MRCI spin determinant printing, contributions to CSF-ICE 
  Pauline Colinet        : FMM embedding                                 
  Dipayan Datta          : RHF DLPNO-CCSD density                        
  Achintya Kumar Dutta   : EOM-CC, STEOM-CC                              
  Nicolas Foglia         : Exact transition moments, OPA infrastructure, MCD improvements    
  Dmitry Ganyushin       : Spin-Orbit,Spin-Spin,Magnetic field MRCI      
  Miquel Garcia-Rates    : C-PCM and meta-GGA Hessian, CCSD/C-PCM, Gaussian charge scheme 
  Tiago L. C. Gouveia    : GS-ROHF, GS-ROCIS                             
  Yang Guo               : DLPNO-NEVPT2, F12-NEVPT2, CIM, IAO-localization        
  Andreas Hansen         : Spin unrestricted coupled pair/coupled cluster methods 
  Ingolf Harden          : AUTO-CI MPn and infrastructure                
  Benjamin Helmich-Paris : MC-RPA, TRAH-(SCF,CASSCF), AVAS, COSX integrals, SCF dyn. polar. 
  Lee Huntington         : MR-EOM, pCC                                   
  Robert Izsak           : Overlap fitted RIJCOSX, COSX-SCS-MP3, EOM     
  Riya Kayal             : Wick's Theorem for AUTO-CI, AUTO-CI UHF-CCSDT 
  Emily Kempfer          : AUTO-CI, RHF CISDT and CCSDT                  
  Christian Kollmar      : KDIIS, OOCD, Brueckner-CCSD(T), CCSD density, CASPT2, CASPT2-K, improved NEVPT2 
  Axel Koslowski         : Symmetry handling                             
  Simone Kossmann        : meta-GGA functionals, TD-DFT gradient, OOMP2, (MP2 Hessian; deprecated post 5.0) 
  Lucas Lang             : DCDCAS                                        
  Marvin Lechner         : AUTO-CI (C++ implementation), FIC-MRCC        
  Spencer Leger          : CASSCF response                               
  Dagmar Lenk            : GEPOL surface, SMD, ORCA-2-JSON               
  Dimitrios Liakos       : Extrapolation schemes; Compound Job, initial MDCI parallelization 
  Dimitrios Manganas     : Further ROCIS development; embedding schemes. LFT, Crystal Embedding 
  Dimitrios Pantazis     : SARC Basis sets                               
  Anastasios Papadopoulos: AUTO-CI, single reference methods and gradients 
  Taras Petrenko         : pre 6.0 DFT Hessian and TD-DFT gradient, (ASA, deprecated), ECA, 1-Electron XAS/XES, NRVS 
  Peter Pinski           : DLPNO-MP2, DLPNO-MP2 Gradient                 
  Christoph Reimann      : Effective Core Potentials                     
  Marius Retegan         : Local ZFS, SOC                                
  Christoph Riplinger    : Optimizer, TS searches, QM/MM, DLPNO-CCSD(T), (RO)-DLPNO pert. Triples 
  Michael Roemelt        : Original ROCIS implementation                 
  Masaaki Saitow         : Open-shell DLPNO-CCSD energy and density      
  Barbara Sandhoefer     : DKH picture change effects                    
  Kantharuban Sivalingam : CASSCF convergence/infrastructure, NEVPT2 and variants, FIC-MRCI 
  Bernardo de Souza      : ESD, SOC TD-DFT                               
  Georgi L. Stoychev     : AutoAux, RI-MP2 NMR, DLPNO-MP2 response, X2C  
  Van Anh Tran           : RI-MP2 g-tensors                              
  Willem Van den Heuvel  : Paramagnetic NMR                              
  Zikuan Wang            : NOTCH, Electric field optimization            
  Frank Wennmohs         : Technical directorship and infrastructure     
  Hang Xu                : AUTO-CI-Response properties                   
                                                                         
[FACCTs GmbH]                                                            
  Markus Bursch, Miquel Garcia-Rates, Christoph Riplinger, Bernardo de Souza, Georgi L. Stoychev 
                                                                 
  APM, Basis sets (HGBS, AHGBS, def-TZVP (Ac-Lr), def2-XVPD (La-Lu)), CI-OPT, improved COSX, DLPNO-Multilevel,           
  DOCKER, DRACO, updates on ESD, GOAT, IRC, LR-CPCM, MBIS, meta-GGA TD-DFT gradient, ML-optimized integration grids, 
  MM, NACMEs, nearIR, NEB, NEB-TS, NL-DFT gradient (VV10), 2- and 3-layer-ONIOM, interface openCOSMO-RS, QMMM,   
  Crystal-QMMM, SF, symmetry and pop. for TD-DFT, r2SCAN hybrids, SOLVATOR                                   
                                                                         
[Other institutions]                                                     
  V. Asgeirsson          : NEB                                           
  Christoph Bannwarth    : sTDA-DFT, sTD-DFT, PBEh-3c, B97-3c, D3        
  Sebastian Ehlert       : rSCAN, r2SCAN, r2SCAN-3c, D4, dhf basis sets  
  Marvin Friede          : D4 for Fr, Ra, Ac-Lr                          
  Lars Goerigk           : TD-DFT with DH, B97 family of functionals     
  Stefan Grimme          : VdW corrections, initial TS optimization, DFT functionals, gCP, sTDA/sTD-DF 
  Waldemar Hujo          : DFT-NL                                        
  H. Jonsson             : NEB                                           
  Holger Kruse           : gCP                                           
  Marcel Mueller         : wB97X-3c, vDZP basis set                      
  Hagen Neugebauer       : wr2SCAN                                       
  Tobias Risthaus        : range-separated hybrid DFT                    
  Lukas Wittmann         : regularized MP2, r2SCAN double-hybrids, wr2SCAN        
                                                                         
We gratefully acknowledge several colleagues who have allowed us to      
interface, adapt or use parts of their codes:                            
  Ed Valeev, F. Pavosevic, A. Kumar             : LibInt (2-el integral package), F12 methods 
  Garnet Chan, S. Sharma, J. Yang, R. Olivares  : DMRG                   
  Ulf Ekstrom                                   : XCFun DFT Library      
  Mihaly Kallay                                 : mrcc  (arbitrary order and MRCC methods)
  Frank Weinhold                                : gennbo (NPA and NBO analysis)           
  Simon Mueller                                 : openCOSMO-RS                            
  Christopher J. Cramer and Donald G. Truhlar   : smd solvation model                     
  S Lehtola, MJT Oliveira, MAL Marques          : LibXC Library                           
  Liviu Ungur et al                             : ANISO software                          


 Your calculation uses the libint2 library for the computation of 2-el integrals
 For citations please refer to: http://libint.valeyev.net

 Your ORCA version has been built with support for libXC version: 6.2.2
 For citations please refer to: https://libxc.gitlab.io

 This ORCA versions uses:
   CBLAS   interface :  Fast vector & matrix operations
   LAPACKE interface :  Fast linear algebra routines
   SCALAPACK package :  Parallel linear algebra routines
   Shared memory     :  Shared parallel matrices
   BLAS/LAPACK       :  OpenBLAS 0.3.27  USE64BITINT DYNAMIC_ARCH NO_AFFINITY Zen SINGLE_THREADED
        Core in use  :  Zen
   Copyright (c) 2011-2014, The OpenBLAS Project


Your calculation utilizes the geometrical counterpoise correction gCP
Please cite in your paper:
H.Kruse, S. Grimme J.Chem.Phys., 136, (2012), 154101 
   

Your calculation utilizes the atom-pairwise dispersion correction
based on EEQ partial charges (D4)


================================================================================

----- Orbital basis set information -----
Your calculation utilizes the basis: def2-mTZVPP
   Stefan Grimme, Andreas Hansen, Sebastian Ehlert, and Jan-Michael Mewes 
   J. Chem. Phys. 154, 064103 (2021). DOI: 10.1063/5.0040021

----- AuxJ basis set information -----
Your calculation utilizes the auxiliary basis: def2/J
   F. Weigend, Phys. Chem. Chem. Phys. 8, 1057 (2006).

================================================================================
                                        WARNINGS
                       Please study these warnings very carefully!
================================================================================



WARNING: SCAN, rSCAN, or r2SCAN functional requested.
  ===> : libXC variant has now been activated.



================================================================================
                                       INPUT FILE
================================================================================
NAME = sp.inp
|  1> ! r2scan-3c def2/J RI DEFGRID2 scfconv6 printgap
|  2> %output
|  3>     printlevel normal
|  4> end
|  5> * xyz 0 1
|  6> C -1.9581122837 0.4587458641 -0.062634914
|  7> C -0.8907218022 -0.6108153326 0.1249057755
|  8> C 0.5598461711 -0.1662683779 0.0241047118
|  9> O 1.4749483183 -0.949274512 0.1554810975
| 10> N 0.7794419488 1.1456069135 -0.2189721199
| 11> H -2.9430151208 0.0062449206 0.0319634815
| 12> H -1.8769968661 1.2357751238 0.6954223801
| 13> H -1.895327499 0.9109695839 -1.0508336268
| 14> H -1.0220698005 -1.4030952812 -0.6159999519
| 15> H -1.0013975643 -1.0806031611 1.1052141227
| 16> H 0.0387922781 1.8118751254 -0.3308846138
| 17> H 1.7323949449 1.4607983135 -0.2892765624
| 18> *
| 19> 
| 20>                          ****END OF INPUT****
================================================================================

                       ****************************
                       * Single Point Calculation *
                       ****************************

---------------------------------
CARTESIAN COORDINATES (ANGSTROEM)
---------------------------------
  C     -1.958112    0.458746   -0.062635
  C     -0.890722   -0.610815    0.124906
  C      0.559846   -0.166268    0.024105
  O      1.474948   -0.949275    0.155481
  N      0.779442    1.145607   -0.218972
  H     -2.943015    0.006245    0.031963
  H     -1.876997    1.235775    0.695422
  H     -1.895327    0.910970   -1.050834
  H     -1.022070   -1.403095   -0.616000
  H     -1.001398   -1.080603    1.105214
  H      0.038792    1.811875   -0.330885
  H      1.732395    1.460798   -0.289277

----------------------------
CARTESIAN COORDINATES (A.U.)
----------------------------
  NO LB      ZA    FRAG     MASS         X           Y           Z
   0 C     6.0000    0    12.011   -3.700296    0.866904   -0.118363
   1 C     6.0000    0    12.011   -1.683220   -1.154274    0.236038
   2 C     6.0000    0    12.011    1.057956   -0.314202    0.045551
   3 O     8.0000    0    15.999    2.787248   -1.793869    0.293817
   4 N     7.0000    0    14.007    1.472932    2.164883   -0.413797
   5 H     1.0000    0     1.008   -5.561493    0.011801    0.060402
   6 H     1.0000    0     1.008   -3.547010    2.335277    1.314158
   7 H     1.0000    0     1.008   -3.581650    1.721483   -1.985788
   8 H     1.0000    0     1.008   -1.931432   -2.651466   -1.164071
   9 H     1.0000    0     1.008   -1.892367   -2.042044    2.088552
  10 H     1.0000    0     1.008    0.073307    3.423948   -0.625281
  11 H     1.0000    0     1.008    3.273752    2.760509   -0.546653

--------------------------------
INTERNAL COORDINATES (ANGSTROEM)
--------------------------------
 C      0   0   0     0.000000000000     0.00000000     0.00000000
 C      1   0   0     1.522647399663     0.00000000     0.00000000
 C      2   1   0     1.520503303035   117.07984075     0.00000000
 O      3   2   1     1.211515703806   121.63106060   180.23505888
 N      3   2   1     1.352155846003   116.77646558     0.25172619
 H      1   2   3     1.087997959018   109.37385475   179.88615046
 H      1   2   3     1.088579368967   111.30871274   298.75479053
 H      1   2   3     1.088570125403   111.29630982    61.01463782
 H      2   1   3     1.092657819496   109.97113327   238.50299945
 H      2   1   3     1.092682105515   109.96839749   121.50153823
 H      5   3   2     1.002496718791   123.01739277     0.00000000
 H      5   3   2     1.006184747472   118.05347384   179.99024418

---------------------------
INTERNAL COORDINATES (A.U.)
---------------------------
 C      0   0   0     0.000000000000     0.00000000     0.00000000
 C      1   0   0     2.877386583891     0.00000000     0.00000000
 C      2   1   0     2.873334828458   117.07984075     0.00000000
 O      3   2   1     2.289432887138   121.63106060   180.23505888
 N      3   2   1     2.555204239325   116.77646558     0.25172619
 H      1   2   3     2.056018176809   109.37385475   179.88615046
 H      1   2   3     2.057116882384   111.30871274   298.75479053
 H      1   2   3     2.057099414579   111.29630982    61.01463782
 H      2   1   3     2.064824036934   109.97113327   238.50299945
 H      2   1   3     2.064869930860   109.96839749   121.50153823
 H      5   3   2     1.894444248670   123.01739277     0.00000000
 H      5   3   2     1.901413612851   118.05347384   179.99024418

---------------------
BASIS SET INFORMATION
---------------------
There are 4 groups of distinct atoms

 Group   1 Type C   : 11s6p1d contracted to 5s3p1d pattern {62111/411/1}
 Group   2 Type O   : 11s6p2d contracted to 5s3p2d pattern {62111/411/11}
 Group   3 Type N   : 11s6p2d contracted to 5s3p2d pattern {62111/411/11}
 Group   4 Type H   : 4s1p contracted to 2s1p pattern {31/1}

Atom   0C    basis set group =>   1
Atom   1C    basis set group =>   1
Atom   2C    basis set group =>   1
Atom   3O    basis set group =>   2
Atom   4N    basis set group =>   3
Atom   5H    basis set group =>   4
Atom   6H    basis set group =>   4
Atom   7H    basis set group =>   4
Atom   8H    basis set group =>   4
Atom   9H    basis set group =>   4
Atom  10H    basis set group =>   4
Atom  11H    basis set group =>   4
---------------------------------
AUXILIARY/J BASIS SET INFORMATION
---------------------------------
There are 4 groups of distinct atoms

 Group   1 Type C   : 12s5p4d2f1g contracted to 6s4p3d1f1g pattern {711111/2111/211/2/1}
 Group   2 Type O   : 12s5p4d2f1g contracted to 6s4p3d1f1g pattern {711111/2111/211/2/1}
 Group   3 Type N   : 12s5p4d2f1g contracted to 6s4p3d1f1g pattern {711111/2111/211/2/1}
 Group   4 Type H   : 5s2p1d contracted to 3s1p1d pattern {311/2/1}

Atom   0C    basis set group =>   1
Atom   1C    basis set group =>   1
Atom   2C    basis set group =>   1
Atom   3O    basis set group =>   2
Atom   4N    basis set group =>   3
Atom   5H    basis set group =>   4
Atom   6H    basis set group =>   4
Atom   7H    basis set group =>   4
Atom   8H    basis set group =>   4
Atom   9H    basis set group =>   4
Atom  10H    basis set group =>   4
Atom  11H    basis set group =>   4

Checking for AutoStart:
The File: sp.gbw exists
Trying to determine its content:
     ... Fine, the file contains calculation information
     ... Fine, the calculation information was read
     ... Fine, the file contains a basis set
     ... Fine, the basis set was read
     ... Fine, the file contains a geometry
     ... Fine, the geometry was read
     ... Fine, the file contains a set of orbitals
     ... Fine, the orbitals can be read
     => possible old guess file was deleted
     => GBW file was renamed to GES file
     => GES file is set as startup file
     => Guess is set to MORead
     ... now leaving AutoStart

------------------------------------------------------------------------------
                             ORCA STARTUP CALCULATIONS
                           -- RI-GTO INTEGRALS CHOSEN --
------------------------------------------------------------------------------
------------------------------------------------------------------------------
                   ___                                                        
                  /   \      - P O W E R E D   B Y -                         
                 /     \                                                     
                 |  |  |   _    _      __       _____    __    __             
                 |  |  |  | |  | |    /  \     |  _  \  |  |  /  |          
                  \  \/   | |  | |   /    \    | | | |  |  | /  /          
                 / \  \   | |__| |  /  /\  \   | |_| |  |  |/  /          
                |  |  |   |  __  | /  /__\  \  |    /   |      \           
                |  |  |   | |  | | |   __   |  |    \   |  |\   \          
                \     /   | |  | | |  |  |  |  | |\  \  |  | \   \       
                 \___/    |_|  |_| |__|  |__|  |_| \__\ |__|  \__/        
                                                                              
                      - O R C A' S   B I G   F R I E N D -                    
                                      &                                       
                       - I N T E G R A L  F E E D E R -                       
                                                                              
 v1 FN, 2020, v2 2021, v3 2022-2024                                           
------------------------------------------------------------------------------


----------------------
SHARK INTEGRAL PACKAGE
----------------------

Number of atoms                             ...     12
Number of basis functions                   ...    140
Number of shells                            ...     68
Maximum angular momentum                    ...      2
Integral batch strategy                     ... SHARK/LIBINT Hybrid
RI-J (if used) integral strategy            ... SPLIT-RIJ (Revised 2003 algorithm where possible)
Printlevel                                  ...      1
Contraction scheme used                     ... SEGMENTED contraction
Prescreening option                         ... SCHWARTZ
   Thresh                                   ... 1.000e-10
   Tcut                                     ... 1.000e-11
   Tpresel                                  ... 1.000e-11 
Coulomb Range Separation                    ... NOT USED
Exchange Range Separation                   ... NOT USED
Multipole approximations                    ... NOT USED
Finite Nucleus Model                        ... NOT USED
CABS basis                                  ... NOT available
Auxiliary Coulomb fitting basis             ... AVAILABLE
   # of basis functions in Aux-J            ...    322
   # of shells in Aux-J                     ...    110
   Maximum angular momentum in Aux-J        ...      4
Auxiliary J/K fitting basis                 ... NOT available
Auxiliary Correlation fitting basis         ... NOT available
Auxiliary 'external' fitting basis          ... NOT available

Checking pre-screening integrals            ... done (  0.0 sec) Dimension = 68
Check shell pair data                       ... done (  0.0 sec)
Shell pair information
Shell pair cut-off parameter TPreSel        ...   1.0e-11
Total number of shell pairs                 ...      2346
Shell pairs after pre-screening             ...      2249
Total number of primitive shell pairs       ...      8259
Primitive shell pairs kept                  ...      6062
          la=0 lb=0:    734 shell pairs
          la=1 lb=0:    821 shell pairs
          la=1 lb=1:    248 shell pairs
          la=2 lb=0:    267 shell pairs
          la=2 lb=1:    151 shell pairs
          la=2 lb=2:     28 shell pairs

Calculating one electron integrals          ... done (  0.0 sec)
Calculating RI/J V-Matrix + Cholesky decomp.... done (  0.0 sec)
Calculating Nuclear repulsion               ... done (  0.0 sec) ENN=    179.726686477014 Eh

Diagonalization of the overlap matrix:
Smallest eigenvalue                        ... 1.862e-04
Time for diagonalization                   ...    0.002 sec
Threshold for overlap eigenvalues          ... 1.000e-07
Number of eigenvalues below threshold      ... 0
Time for construction of square roots      ...    0.003 sec
Total time needed                          ...    0.006 sec

-------------------
DFT GRID GENERATION
-------------------

General Integration Accuracy     IntAcc      ... 4.388
Radial Grid Type                 RadialGrid  ... OptM3 with GC (2021)
Angular Grid (max. ang.)         AngularGrid ... 4 (Lebedev-302)
Angular grid pruning method      GridPruning ... 4 (adaptive)
Weight generation scheme         WeightScheme... mBecke (2022)
Basis function cutoff            BFCut       ... 1.0000e-10
Integration weight cutoff        WCut        ... 1.0000e-14
Partially contracted basis set               ... off
Rotationally invariant grid construction     ... off
Angular grids for H and He will be reduced by one unit
Diffuse basis detected: some atoms will have their outermost
                        angular grid increased by 1.

Total number of grid points                  ...    53160
Total number of batches                      ...      836
Average number of points per batch           ...       63
Average number of grid points per atom       ...     4430
Initializing property integral containers    ... done (  0.0 sec)

SHARK setup successfully completed in   0.8 seconds

Maximum memory used throughout the entire STARTUP-calculation: 24.3 MB
-------------------------------------------------------------------------------
                                 ORCA GUESS
                   Start orbitals & Density for SCF / CASSCF
-------------------------------------------------------------------------------

------------
SCF SETTINGS
------------
Hamiltonian:
 Density Functional     Method          .... DFT(GTOs)
  Functional kind                       .... Exchange
  Functional name                       .... Re-regularized SCAN exchange by Furness et al
  Functional family                     .... MGGA
  Functional refs                              
    [ 0] J. W. Furness, A. D. Kaplan, J. Ning, J. P. Perdew, and J. Sun.,  J. Phys. Chem. Lett. 11, 8208-8215 (2020), doi: 10.1021/acs.jpclett.0c02405
    [ 1] J. W. Furness, A. D. Kaplan, J. Ning, J. P. Perdew, and J. Sun.,  J. Phys. Chem. Lett. 11, 9248-9248 (2020), doi: 10.1021/acs.jpclett.0c03077
  Functional external parameters        .... 6
    Parameter  0 _c1        =  6.670000e-01 : c1 parameter        
    Parameter  1 _c2        =  8.000000e-01 : c2 parameter        
    Parameter  2 _d         =  1.240000e+00 : d parameter         
    Parameter  3 _k1        =  6.500000e-02 : k1 parameter        
    Parameter  4 _eta       =  1.000000e-03 : eta parameter       
    Parameter  5 _dp2       =  3.610000e-01 : dp2 parameter       
  Functional kind                       .... Correlation
  Functional name                       .... Re-regularized SCAN correlation by Furness et al
  Functional family                     .... MGGA
  Functional refs                              
    [ 0] J. W. Furness, A. D. Kaplan, J. Ning, J. P. Perdew, and J. Sun.,  J. Phys. Chem. Lett. 11, 8208-8215 (2020), doi: 10.1021/acs.jpclett.0c02405
    [ 1] J. W. Furness, A. D. Kaplan, J. Ning, J. P. Perdew, and J. Sun.,  J. Phys. Chem. Lett. 11, 9248-9248 (2020), doi: 10.1021/acs.jpclett.0c03077
  Functional external parameters        .... 1
    Parameter  0 _eta       =  1.000000e-03 : Regularization parameter
 Gradients option       PostSCFGGA      .... off
 RI-approximation to the Coulomb term is turned on
   Number of AuxJ basis functions       .... 322


General Settings:
 Integral files         IntName         .... sp
 Hartree-Fock type      HFTyp           .... RHF
 Total Charge           Charge          ....    0
 Multiplicity           Mult            ....    1
 Number of Electrons    NEL             ....   40
 Basis Dimension        Dim             ....  140
 Nuclear Repulsion      ENuc            ....    179.7266864770 Eh

Convergence Acceleration:
 AO-DIIS                CNVDIIS         .... on
   Start iteration      DIISMaxIt       ....    12
   Startup error        DIISStart       ....  0.200000
   # of expansion vecs  DIISMaxEq       ....     5
   Bias factor          DIISBfac        ....   1.050
   Max. coefficient     DIISMaxC        ....  10.000
 MO-DIIS                CNVKDIIS        .... off
 Trust-Rad. Augm. Hess. CNVTRAH         .... auto
   Auto Start mean grad. ratio tolernc. ....  1.125000
   Auto Start start iteration           ....     1
   Auto Start num. interpolation iter.  ....    10
   Max. Number of Micro iterations      ....    24
   Max. Number of Macro iterations      .... Maxiter - #DIIS iter
   Number of Davidson start vectors     ....     2
   Converg. threshold    (grad. norm)   ....   3.330e-04
   Grad. Scal. Fac. for Micro threshold ....   0.100
   Minimum threshold for Micro iter.    ....   1.000e-02
   NR start threshold (gradient norm)   ....   1.000e-04
   Initial trust radius                 ....   0.400
   Minimum AH scaling param. (alpha)    ....   1.000
   Maximum AH scaling param. (alpha)    .... 1000.000
   Quad. conv. algorithm                .... NR
   White noise on init. David. guess    .... on
   Maximum white noise                  ....   0.010
   Pseudo random numbers                .... off
   Inactive MOs                         .... canonical
   Orbital update algorithm             .... Taylor
   Preconditioner                       .... Diag
   Full preconditioner red. dimension   ....   250
   COSX micro iterations for RIJONX calc.... off
 SOSCF                  CNVSOSCF        .... on
   Start iteration      SOSCFMaxIt      ....   150
   Startup grad/error   SOSCFStart      ....  0.003300
   Hessian update       SOSCFHessUp     .... L-BFGS
 Level Shifting         CNVShift        .... on
   Level shift para.    LevelShift      ....    0.2500
   Turn off err/grad.   ShiftErr        ....    0.0010
 Zerner damping         CNVZerner       .... off
 Static damping         CNVDamp         .... on
   Fraction old density DampFac         ....    0.7000
   Max. Damping (<1)    DampMax         ....    0.9800
   Min. Damping (>=0)   DampMin         ....    0.0000
   Turn off err/grad.   DampErr         ....    0.1000

SCF Procedure:
 Maximum # iterations   MaxIter         ....   125
 SCF integral mode      SCFMode         .... Direct
   Integral package                     .... SHARK and LIBINT hybrid scheme
 Reset frequency        DirectResetFreq ....    20
 Integral Threshold     Thresh          ....  1.000e-10 Eh
 Primitive CutOff       TCut            ....  1.000e-11 Eh

Convergence Tolerance:
 Convergence Check Mode ConvCheckMode   .... Total+1el-Energy
 Convergence forced     ConvForced      .... 0
 Energy Change          TolE            ....  1.000e-06 Eh
 1-El. energy change                    ....  1.000e-03 Eh
 Orbital Gradient       TolG            ....  3.330e-04
 Orbital Rotation angle TolX            ....  3.330e-04
 DIIS Error             TolErr          ....  1.000e-06

---------------------
INITIAL GUESS: MOREAD
---------------------
Guess MOs are being read from file: sp.ges
Input Geometry matches current geometry (good)
Atom 0: N(Shells)= 9 and 6 - projection required
Input basis set needs projection
NBasis(read)= 84
NBasis(calc)= 140
Basis set overlap was calculated
Using GuessMode=FMatrix for the initial guess
C*T matrix was formed
Effective Fockian was calculated
Effective Fockian was diagonalized
Initial density was built
                      ------------------
                      INITIAL GUESS DONE (   0.0 sec)
                      ------------------
             **** ENERGY FILE WAS UPDATED (sp.en.tmp) ****
Finished Guess after   0.1 sec
Maximum memory used throughout the entire GUESS-calculation: 10.0 MB

-------------------------------------------------------------------------------------------
                                      ORCA LEAN-SCF
                              memory conserving SCF solver
-------------------------------------------------------------------------------------------

----------------------------------------D-I-I-S--------------------------------------------
Iteration    Energy (Eh)           Delta-E    RMSDP     MaxDP     DIISErr   Damp  Time(sec)
-------------------------------------------------------------------------------------------
               ***  Starting incremental Fock matrix formation  ***
    1    -248.3436191061483385     0.00e+00  4.82e-03  1.41e-01  6.23e-01  0.700   1.2
    2    -248.3833628691540127    -3.97e-02  3.92e-03  9.01e-02  4.37e-01  0.700   1.1
    3    -248.4115369815790757    -2.82e-02  2.88e-03  6.68e-02  3.07e-01  0.700   1.1
    4    -248.4313455776494663    -1.98e-02  2.07e-03  4.79e-02  2.15e-01  0.700   1.1
                               ***Turning on AO-DIIS***
    5    -248.4452545358259101    -1.39e-02  1.50e-03  3.46e-02  1.50e-01  0.700   1.1
    6    -248.4550106984687829    -9.76e-03  1.07e-03  2.45e-02  1.05e-01  0.700   1.3
    7    -248.4618546455621129    -6.84e-03  7.53e-04  1.73e-02  7.36e-02  0.700   1.3
    8    -248.4666517407477784    -4.80e-03  1.77e-03  4.07e-02  5.16e-02  0.000   1.0
                              *** Initializing SOSCF ***
---------------------------------------S-O-S-C-F--------------------------------------
Iteration    Energy (Eh)           Delta-E    RMSDP     MaxDP     MaxGrad    Time(sec)
--------------------------------------------------------------------------------------
    9    -248.4778659699332763    -1.12e-02  1.23e-05  1.78e-04  2.39e-04     1.0
               *** Restarting incremental Fock matrix formation ***
   10    -248.4778659988017750    -2.89e-08  2.32e-05  8.10e-04  1.40e-04     3.4
   11    -248.4778653249121305     6.74e-07  1.61e-05  4.98e-04  3.79e-04     0.8
                 **** Energy Check signals convergence ****

               *****************************************************
               *                     SUCCESS                       *
               *           SCF CONVERGED AFTER  11 CYCLES          *
               *****************************************************

             **** ENERGY FILE WAS UPDATED (sp.en.tmp) ****

----------------
TOTAL SCF ENERGY
----------------

Total Energy       :       -248.47786532491213 Eh           -6761.42646 eV

Components:
Nuclear Repulsion  :        179.72668647701428 Eh            4890.61177 eV
Electronic Energy  :       -428.20455180192641 Eh          -11652.03823 eV
One Electron Energy:       -692.57727764799301 Eh          -18845.98584 eV
Two Electron Energy:        264.37272584606660 Eh            7193.94760 eV

Virial components:
Potential Energy   :       -495.98246740374890 Eh          -13496.36908 eV
Kinetic Energy     :        247.50460207883677 Eh            6734.94262 eV
Virial Ratio       :          2.00393230363355

DFT components:
N(Alpha)           :       20.000035354224 electrons
N(Beta)            :       20.000035354224 electrons
N(Total)           :       40.000070708447 electrons
E(X)               :      -33.056881053250 Eh       
E(C)               :       -1.280479747456 Eh       
E(XC)              :      -34.337360800707 Eh       

---------------
SCF CONVERGENCE
---------------

  Last Energy change         ...   -6.7389e-07  Tolerance :   1.0000e-06
  Last MAX-Density change    ...    4.9831e-04  Tolerance :   1.0000e-05
  Last RMS-Density change    ...    1.6051e-05  Tolerance :   1.0000e-06
  Last DIIS Error            ...    2.3948e-04  Tolerance :   1.0000e-06
  Last Orbital Gradient      ...    3.7941e-04  Tolerance :   3.3300e-04
  Last Orbital Rotation      ...    4.5145e-04  Tolerance :   3.3300e-04


----------------
ORBITAL ENERGIES
----------------

  NO   OCC          E(Eh)            E(eV) 
   0   2.0000     -18.905584      -514.4471 
   1   2.0000     -14.180888      -385.8816 
   2   2.0000     -10.126840      -275.5653 
   3   2.0000     -10.042829      -273.2793 
   4   2.0000     -10.038442      -273.1599 
   5   2.0000      -0.998719       -27.1765 
   6   2.0000      -0.873481       -23.7686 
   7   2.0000      -0.750652       -20.4263 
   8   2.0000      -0.628810       -17.1108 
   9   2.0000      -0.554951       -15.1010 
  10   2.0000      -0.515229       -14.0201 
  11   2.0000      -0.442249       -12.0342 
  12   2.0000      -0.426218       -11.5980 
  13   2.0000      -0.393298       -10.7022 
  14   2.0000      -0.371477       -10.1084 
  15   2.0000      -0.355152        -9.6642 
  16   2.0000      -0.341842        -9.3020 
  17   2.0000      -0.322025        -8.7627 
  18   2.0000      -0.243128        -6.6159 
  19   2.0000      -0.214476        -5.8362 
  20   0.0000       0.004554         0.1239 
  21   0.0000       0.062007         1.6873 
  22   0.0000       0.112938         3.0732 
  23   0.0000       0.117778         3.2049 
  24   0.0000       0.140226         3.8157 
  25   0.0000       0.142658         3.8819 
  26   0.0000       0.156182         4.2499 
  27   0.0000       0.169401         4.6096 
  28   0.0000       0.189482         5.1561 
  29   0.0000       0.191435         5.2092 
  30   0.0000       0.208423         5.6715 
*Only the first 10 virtual orbitals were printed.

                    ********************************
                    * MULLIKEN POPULATION ANALYSIS *
                    ********************************

-----------------------
MULLIKEN ATOMIC CHARGES
-----------------------
   0 C :   -0.523773
   1 C :   -0.235361
   2 C :    0.260867
   3 O :   -0.407682
   4 N :   -0.385000
   5 H :    0.155921
   6 H :    0.154445
   7 H :    0.154877
   8 H :    0.163334
   9 H :    0.163427
  10 H :    0.255271
  11 H :    0.243673
Sum of atomic charges:    0.0000000

--------------------------------
MULLIKEN REDUCED ORBITAL CHARGES
--------------------------------
  0 C s       :     3.353376  s :     3.353376
      pz      :     1.060986  p :     3.143333
      px      :     1.066710
      py      :     1.015637
      dz2     :     0.005531  d :     0.027064
      dxz     :     0.001421
      dyz     :     0.007960
      dx2y2   :     0.005730
      dxy     :     0.006422

  1 C s       :     3.121426  s :     3.121426
      pz      :     1.123427  p :     3.078958
      px      :     0.927039
      py      :     1.028492
      dz2     :     0.006370  d :     0.034977
      dxz     :     0.003313
      dyz     :     0.008066
      dx2y2   :     0.009383
      dxy     :     0.007845

  2 C s       :     3.117013  s :     3.117013
      pz      :     0.770255  p :     2.506505
      px      :     0.897241
      py      :     0.839009
      dz2     :     0.006817  d :     0.115615
      dxz     :     0.012859
      dyz     :     0.022149
      dx2y2   :     0.050233
      dxy     :     0.023557

  3 O s       :     3.833128  s :     3.833128
      pz      :     1.473878  p :     4.550637
      px      :     1.498014
      py      :     1.578745
      dz2     :     0.002863  d :     0.023917
      dxz     :     0.006048
      dyz     :     0.004293
      dx2y2   :    -0.001228
      dxy     :     0.011941

  4 N s       :     3.408386  s :     3.408386
      pz      :     1.697808  p :     3.944217
      px      :     1.175670
      py      :     1.070739
      dz2     :     0.003860  d :     0.032397
      dxz     :     0.003027
      dyz     :     0.003211
      dx2y2   :     0.007277
      dxy     :     0.015022

  5 H s       :     0.825777  s :     0.825777
      pz      :     0.003772  p :     0.018301
      px      :     0.009723
      py      :     0.004807

  6 H s       :     0.827342  s :     0.827342
      pz      :     0.007130  p :     0.018212
      px      :     0.003714
      py      :     0.007369

  7 H s       :     0.826913  s :     0.826913
      pz      :     0.009603  p :     0.018209
      px      :     0.003701
      py      :     0.004905

  8 H s       :     0.818634  s :     0.818634
      pz      :     0.006950  p :     0.018032
      px      :     0.003377
      py      :     0.007704

  9 H s       :     0.818539  s :     0.818539
      pz      :     0.009582  p :     0.018034
      px      :     0.003354
      py      :     0.005098

 10 H s       :     0.710971  s :     0.710971
      pz      :     0.010155  p :     0.033758
      px      :     0.012871
      py      :     0.010732

 11 H s       :     0.723482  s :     0.723482
      pz      :     0.009769  p :     0.032845
      px      :     0.017694
      py      :     0.005383


------------------------
MULLIKEN OVERLAP CHARGES
------------------------
B(  0-C ,  1-C ) :   0.1252 B(  0-C ,  2-C ) :  -0.0660 B(  0-C ,  4-N ) :   0.0509 
B(  0-C ,  5-H ) :   0.7351 B(  0-C ,  6-H ) :   0.8706 B(  0-C ,  7-H ) :   0.8716 
B(  1-C ,  2-C ) :   0.5562 B(  1-C ,  3-O ) :  -0.2074 B(  1-C ,  4-N ) :  -0.3199 
B(  1-C ,  6-H ) :  -0.1250 B(  1-C ,  7-H ) :  -0.1264 B(  1-C ,  8-H ) :   0.7452 
B(  1-C ,  9-H ) :   0.7435 B(  2-C ,  3-O ) :   1.2812 B(  2-C ,  4-N ) :   0.2739 
B(  3-O ,  4-N ) :  -0.2958 B(  4-N , 10-H ) :   0.6967 B(  4-N , 11-H ) :   0.7223 
B(  6-H ,  7-H ) :  -0.0676 B( 10-H , 11-H ) :  -0.0512 


                     *******************************
                     * LOEWDIN POPULATION ANALYSIS *
                     *******************************

----------------------
LOEWDIN ATOMIC CHARGES
----------------------
   0 C :   -0.420411
   1 C :   -0.253716
   2 C :    0.296830
   3 O :   -0.458203
   4 N :   -0.506986
   5 H :    0.158291
   6 H :    0.151751
   7 H :    0.151873
   8 H :    0.180529
   9 H :    0.180524
  10 H :    0.258039
  11 H :    0.261479

-------------------------------
LOEWDIN REDUCED ORBITAL CHARGES
-------------------------------
  0 C s       :     2.972358  s :     2.972358
      pz      :     1.149585  p :     3.384669
      px      :     1.114724
      py      :     1.120361
      dz2     :     0.013611  d :     0.063384
      dxz     :     0.002543
      dyz     :     0.019352
      dx2y2   :     0.012351
      dxy     :     0.015528

  1 C s       :     2.927924  s :     2.927924
      pz      :     1.144882  p :     3.251921
      px      :     1.012178
      py      :     1.094861
      dz2     :     0.014477  d :     0.073872
      dxz     :     0.005576
      dyz     :     0.018037
      dx2y2   :     0.018239
      dxy     :     0.017542

  2 C s       :     2.749588  s :     2.749588
      pz      :     0.740724  p :     2.703366
      px      :     1.001938
      py      :     0.960704
      dz2     :     0.017148  d :     0.250217
      dxz     :     0.021656
      dyz     :     0.043430
      dx2y2   :     0.111032
      dxy     :     0.056950

  3 O s       :     3.546392  s :     3.546392
      pz      :     1.466731  p :     4.691793
      px      :     1.609395
      py      :     1.615667
      dz2     :     0.028222  d :     0.220018
      dxz     :     0.027620
      dyz     :     0.030748
      dx2y2   :     0.076732
      dxy     :     0.056696

  4 N s       :     3.137622  s :     3.137622
      pz      :     1.628562  p :     4.085623
      px      :     1.231434
      py      :     1.225626
      dz2     :     0.037632  d :     0.283741
      dxz     :     0.009665
      dyz     :     0.046537
      dx2y2   :     0.069492
      dxy     :     0.120416

  5 H s       :     0.798022  s :     0.798022
      pz      :     0.008105  p :     0.043687
      px      :     0.024186
      py      :     0.011396

  6 H s       :     0.804684  s :     0.804684
      pz      :     0.017575  p :     0.043565
      px      :     0.008243
      py      :     0.017747

  7 H s       :     0.804558  s :     0.804558
      pz      :     0.024067  p :     0.043569
      px      :     0.008206
      py      :     0.011296

  8 H s       :     0.775747  s :     0.775747
      pz      :     0.017097  p :     0.043725
      px      :     0.007653
      py      :     0.018974

  9 H s       :     0.775742  s :     0.775742
      pz      :     0.023899  p :     0.043733
      px      :     0.007611
      py      :     0.012223

 10 H s       :     0.652721  s :     0.652721
      pz      :     0.024765  p :     0.089240
      px      :     0.034054
      py      :     0.030421

 11 H s       :     0.651752  s :     0.651752
      pz      :     0.023793  p :     0.086769
      px      :     0.047805
      py      :     0.015171


---------------------------------
LOEWDIN BOND ORDERS (THRESH 0.050000)
---------------------------------
B(  0-C ,  1-C ) :   1.1331 B(  0-C ,  2-C ) :   0.0628 B(  0-C ,  4-N ) :   0.0521 
B(  0-C ,  5-H ) :   0.9211 B(  0-C ,  6-H ) :   0.9258 B(  0-C ,  7-H ) :   0.9258 
B(  1-C ,  2-C ) :   0.9286 B(  1-C ,  3-O ) :   0.2016 B(  1-C ,  4-N ) :   0.1615 
B(  1-C ,  8-H ) :   0.8693 B(  1-C ,  9-H ) :   0.8692 B(  2-C ,  3-O ) :   2.1645 
B(  2-C ,  4-N ) :   1.4682 B(  2-C , 10-H ) :   0.0537 B(  2-C , 11-H ) :   0.0543 
B(  3-O ,  4-N ) :   0.5172 B(  4-N , 10-H ) :   0.9011 B(  4-N , 11-H ) :   0.9008 


------------------------------------------
LOEWDIN REDUCED ORBITAL POPULATIONS PER MO
-------------------------------------------
THRESHOLD FOR PRINTING IS 0.1%%
                      0         1         2         3         4         5   
                 -18.90558 -14.18089 -10.12684 -10.04283 -10.03844  -0.99872
                   2.00000   2.00000   2.00000   2.00000   2.00000   2.00000
                  --------  --------  --------  --------  --------  --------
 0 C  s               0.0       0.0       0.0       0.0      99.7       0.1
 0 C  px              0.0       0.0       0.0       0.0       0.0       0.2
 1 C  s               0.0       0.0       0.0      99.7       0.0       1.5
 1 C  px              0.0       0.0       0.1       0.0       0.0       2.2
 2 C  s               0.0       0.0      98.9       0.0       0.0      20.8
 2 C  px              0.0       0.0       0.0       0.1       0.0       6.5
 2 C  py              0.0       0.1       0.0       0.0       0.0       1.7
 2 C  dz2             0.0       0.0       0.0       0.0       0.0       0.6
 2 C  dxy             0.0       0.0       0.0       0.0       0.0       0.8
 3 O  s              99.9       0.0       0.0       0.0       0.0      44.1
 3 O  px              0.0       0.0       0.1       0.0       0.0       3.4
 3 O  py              0.0       0.0       0.1       0.0       0.0       2.8
 3 O  dz2             0.0       0.0       0.1       0.0       0.0       0.3
 3 O  dxy             0.0       0.0       0.2       0.0       0.0       0.6
 4 N  s               0.0      99.8       0.0       0.0       0.0       7.2
 4 N  py              0.0       0.0       0.1       0.0       0.0       2.6
 4 N  dz2             0.0       0.0       0.1       0.0       0.0       0.5
 4 N  dyz             0.0       0.0       0.0       0.0       0.0       0.2
 4 N  dx2y2           0.0       0.0       0.2       0.0       0.0       1.0
10 H  s               0.0       0.0       0.0       0.0       0.0       0.7
11 H  s               0.0       0.0       0.0       0.0       0.0       1.0

                      6         7         8         9        10        11   
                  -0.87348  -0.75065  -0.62881  -0.55495  -0.51523  -0.44225
                   2.00000   2.00000   2.00000   2.00000   2.00000   2.00000
                  --------  --------  --------  --------  --------  --------
 0 C  s               0.4      25.3      20.7       1.3       0.0       0.0
 0 C  pz              0.0       0.0       0.1       0.1       0.1      21.8
 0 C  px              0.4       1.3       2.9       0.4       0.9       0.0
 0 C  py              0.0       1.4       2.3       2.1       3.5       0.7
 1 C  s               0.6      28.2       7.5       4.8       1.3       0.0
 1 C  pz              0.0       0.0       0.1       0.2       0.1      31.6
 1 C  px              0.1       1.3       8.5       0.7       2.8       0.0
 1 C  py              0.7       1.2       2.6       5.3       2.4       1.1
 1 C  dxy             0.0       0.1       0.3       0.0       0.0       0.0
 2 C  s               1.7       1.4       4.7       5.4       0.0       0.0
 2 C  pz              0.6       0.0       0.0       0.3       0.0      10.2
 2 C  px              1.7       8.9       8.0       0.2       3.6       0.0
 2 C  py             18.9       0.9       0.4       9.5       0.6       0.4
 2 C  dx2y2           0.5       0.1       0.0       0.1       0.0       0.0
 2 C  dxy             0.6       0.0       0.2       0.0       0.6       0.0
 3 O  s              10.4       0.5       2.8       2.0       1.1       0.0
 3 O  pz              0.0       0.0       0.0       0.1       0.1       3.6
 3 O  px              0.5       0.3       1.5       0.1       0.1       0.0
 3 O  py              0.4       0.1       0.2       3.0       2.3       0.1
 3 O  dz2             0.2       0.1       0.2       0.1       0.1       0.0
 3 O  dxz             0.0       0.0       0.0       0.0       0.0       0.5
 3 O  dyz             0.1       0.0       0.0       0.0       0.1       0.2
 3 O  dx2y2           0.3       0.5       0.5       0.4       0.5       0.0
 3 O  dxy             0.3       0.0       0.4       0.8       0.0       0.0
 4 N  s              43.2       2.2       0.6       1.5       0.0       0.0
 4 N  pz              0.0       0.0       0.2       1.3       0.1       3.4
 4 N  px              0.2       1.0       1.0       1.4      44.7       0.0
 4 N  py              0.1       0.6       4.7      36.4       4.7       0.1
 4 N  dxz             0.0       0.0       0.0       0.0       0.0       0.2
 4 N  dyz             0.0       0.0       0.0       0.0       0.0       0.4
 4 N  dx2y2           0.1       0.0       0.4       0.5       0.1       0.0
 4 N  dxy             0.1       0.4       0.6       0.1       0.5       0.0
 5 H  s               0.0       4.0       6.7       0.4       0.5       0.0
 5 H  pz              0.0       0.0       0.0       0.0       0.0       0.1
 5 H  px              0.0       0.3       0.4       0.0       0.0       0.0
 5 H  py              0.0       0.0       0.1       0.0       0.0       0.0
 6 H  s               0.0       3.9       6.5       0.9       0.3       5.2
 6 H  pz              0.0       0.2       0.3       0.0       0.0       0.0
 6 H  py              0.0       0.2       0.2       0.0       0.0       0.2
 7 H  s               0.0       3.9       6.5       0.9       0.3       5.2
 7 H  pz              0.0       0.3       0.4       0.1       0.0       0.1
 7 H  py              0.0       0.1       0.1       0.0       0.0       0.1
 8 H  s               0.0       4.4       2.4       3.4       1.3       6.9
 8 H  pz              0.0       0.2       0.1       0.2       0.1       0.0
 8 H  py              0.0       0.2       0.1       0.1       0.0       0.3
 9 H  s               0.0       4.4       2.4       3.4       1.3       7.0
 9 H  pz              0.0       0.3       0.2       0.2       0.1       0.1
 9 H  py              0.0       0.1       0.0       0.0       0.0       0.2
10 H  s               8.2       0.2       0.7       5.7      14.0       0.0
10 H  px              0.7       0.1       0.1       0.7       0.1       0.0
10 H  py              0.5       0.0       0.0       0.0       0.5       0.0
11 H  s               6.9       1.0       1.3       5.3      10.1       0.0
11 H  px              1.0       0.1       0.1       0.5       0.3       0.0
11 H  py              0.1       0.0       0.0       0.1       0.4       0.0

                     12        13        14        15        16        17   
                  -0.42622  -0.39330  -0.37148  -0.35515  -0.34184  -0.32202
                   2.00000   2.00000   2.00000   2.00000   2.00000   2.00000
                  --------  --------  --------  --------  --------  --------
 0 C  s               0.2       0.1       0.0       0.2       0.5       0.0
 0 C  pz              0.4       0.1      23.4       0.0       0.9      10.1
 0 C  px              0.0      30.4       0.0      17.0       0.5       0.0
 0 C  py             13.3       2.7       0.8       1.9      26.8       0.4
 0 C  dz2             0.1       0.0       0.0       0.0       0.3       0.1
 0 C  dyz             0.0       0.0       0.3       0.0       0.0       0.6
 0 C  dx2y2           0.0       0.0       0.0       0.1       0.4       0.0
 0 C  dxy             0.0       0.3       0.0       0.2       0.0       0.0
 1 C  s               0.5       0.7       0.0       0.2       0.3       0.0
 1 C  pz              0.0       0.4       0.3       0.1       0.9      23.2
 1 C  px             16.9       0.4       0.0      10.9       0.1       0.0
 1 C  py              0.8      10.6       0.0       3.0      25.2       0.8
 1 C  dz2             0.0       0.0       0.0       0.0       0.4       0.1
 1 C  dxz             0.0       0.0       0.2       0.0       0.0       0.0
 1 C  dyz             0.0       0.0       0.0       0.0       0.0       0.8
 1 C  dx2y2           0.1       0.1       0.0       0.0       0.5       0.0
 1 C  dxy             0.0       0.0       0.0       0.3       0.1       0.0
 2 C  s               2.1       1.0       0.0       0.6       0.5       0.0
 2 C  pz              0.4       0.0      20.8       0.1       0.0       4.1
 2 C  px              3.5       1.6       0.0      10.6       4.2       0.0
 2 C  py              9.8       0.9       0.7       2.2       1.0       0.1
 2 C  dxz             0.0       0.0       0.1       0.0       0.0       0.4
 2 C  dx2y2           0.1       0.2       0.0       0.1       0.1       0.0
 2 C  dxy             0.1       0.0       0.0       0.4       0.0       0.0
 3 O  s               5.5       4.9       0.0       6.0       0.1       0.0
 3 O  pz              0.0       0.1      19.0       0.7       0.1       7.3
 3 O  px             17.7      12.4       0.0       9.8       0.8       0.0
 3 O  py              0.5       4.9       0.6      24.6       1.6       0.2
 3 O  dz2             0.1       0.0       0.1       0.1       0.0       0.0
 3 O  dxz             0.0       0.0       0.7       0.0       0.0       0.0
 3 O  dyz             0.0       0.0       0.6       0.0       0.0       0.4
 3 O  dx2y2           0.6       0.1       0.0       0.1       0.1       0.0
 3 O  dxy             0.1       0.1       0.0       0.2       0.1       0.0
 4 N  s               0.3       0.1       0.0       0.2       0.0       0.0
 4 N  pz              0.1       0.0      12.9       0.0       0.0      13.9
 4 N  px              8.5       3.8       0.0       0.5       0.5       0.0
 4 N  py              3.5       0.2       0.4       1.1       1.2       0.5
 4 N  dz2             0.1       0.1       0.1       0.1       0.0       0.0
 4 N  dyz             0.0       0.0       0.9       0.0       0.0       0.1
 4 N  dx2y2           0.1       0.9       0.0       0.1       0.0       0.0
 4 N  dxy             1.1       0.7       0.0       1.0       1.3       0.0
 5 H  s               0.5      15.6       0.0       5.4       5.8       0.0
 5 H  pz              0.0       0.0       0.2       0.0       0.0       0.1
 5 H  px              0.0       0.2       0.0       0.0       0.2       0.0
 5 H  py              0.1       0.1       0.0       0.1       0.1       0.0
 6 H  s               2.5       0.7       8.3       0.1       5.3       6.3
 6 H  pz              0.1       0.0       0.0       0.0       0.2       0.0
 6 H  px              0.0       0.2       0.0       0.2       0.0       0.0
 6 H  py              0.0       0.0       0.2       0.0       0.0       0.1
 7 H  s               2.4       0.7       8.4       0.1       5.3       6.2
 7 H  pz              0.1       0.0       0.1       0.0       0.1       0.0
 7 H  px              0.0       0.2       0.0       0.2       0.0       0.0
 7 H  py              0.0       0.0       0.1       0.0       0.1       0.0
 8 H  s               1.1       0.6       0.2       0.1       6.5      11.6
 8 H  pz              0.0       0.0       0.0       0.0       0.2       0.0
 8 H  px              0.1       0.0       0.0       0.1       0.0       0.0
 8 H  py              0.0       0.0       0.0       0.0       0.0       0.2
 9 H  s               1.1       0.6       0.2       0.1       6.5      11.7
 9 H  pz              0.1       0.0       0.0       0.0       0.2       0.0
 9 H  px              0.1       0.0       0.0       0.1       0.0       0.0
 9 H  py              0.0       0.0       0.0       0.0       0.1       0.1
10 H  s               0.4       1.4       0.0       0.8       0.1       0.0
10 H  pz              0.0       0.0       0.1       0.0       0.0       0.2
10 H  py              0.2       0.1       0.0       0.0       0.0       0.0
11 H  s               4.4       1.3       0.0       0.3       0.6       0.0
11 H  pz              0.0       0.0       0.2       0.0       0.0       0.2
11 H  px              0.1       0.0       0.0       0.0       0.0       0.0

                     18        19        20        21        22        23   
                  -0.24313  -0.21448   0.00455   0.06201   0.11294   0.11778
                   2.00000   2.00000   0.00000   0.00000   0.00000   0.00000
                  --------  --------  --------  --------  --------  --------
 0 C  s               0.0       0.2       0.0      16.9       1.2      22.4
 0 C  pz              0.3       0.0       0.3       0.1       0.9       0.0
 0 C  px              0.0       1.6       0.0       0.8       1.5      17.2
 0 C  py              0.0       0.1       0.0       1.6      25.4       0.1
 0 C  dz2             0.0       0.0       0.0       0.0       0.8       0.2
 0 C  dyz             0.0       0.0       0.0       0.0       0.1       0.0
 0 C  dx2y2           0.0       0.1       0.0       0.0       0.1       0.0
 0 C  dxy             0.0       0.0       0.0       0.4       0.4       0.5
 1 C  s               0.0       0.9       0.0       8.3      19.5       0.6
 1 C  pz              0.3       0.0       0.2       0.0       0.1       0.2
 1 C  px              0.0       6.8       0.0       0.4       2.1       4.4
 1 C  py              0.0       1.0       0.0       0.3       2.3       5.3
 1 C  dz2             0.0       0.0       0.1       0.1       0.2       0.7
 1 C  dxz             0.0       0.0       1.0       0.0       0.0       0.0
 1 C  dyz             0.0       0.0       0.9       0.0       0.0       0.1
 1 C  dx2y2           0.0       0.0       0.0       0.0       0.2       0.0
 1 C  dxy             0.0       0.1       0.0       0.3       0.0       0.6
 2 C  s               0.0       0.3       0.0      11.4       3.3       0.7
 2 C  pz              0.4       0.0      37.7       0.1       0.0       0.0
 2 C  px              0.0       1.2       0.0       0.5       0.3       6.3
 2 C  py              0.0       0.7       1.3       2.5       0.4       0.3
 2 C  dz2             0.2       0.0       0.0       0.8       0.3       0.0
 2 C  dxz             0.4       0.0       1.1       0.0       0.0       0.0
 2 C  dyz             1.8       0.2       0.0       0.1       0.0       0.0
 2 C  dx2y2           0.1       4.3       0.0       0.0       0.0       0.1
 2 C  dxy             0.0       0.1       0.0       0.1       0.3       0.3
 3 O  s               0.0       0.0       0.0       0.5       0.4       1.2
 3 O  pz             40.8       1.4      21.0       0.0       0.0       0.0
 3 O  px              0.0      33.8       0.0       0.3       0.3       0.1
 3 O  py              1.4      37.9       0.7       0.7       0.7       0.1
 3 O  dz2             0.0       0.0       0.1       0.7       1.0       0.0
 3 O  dxz             0.0       0.0       4.1       0.0       0.0       0.0
 3 O  dyz             0.2       0.0       1.6       0.0       0.1       0.0
 3 O  dx2y2           0.0       0.7       0.1       0.2       0.0       0.0
 3 O  dxy             0.0       0.0       0.1       0.0       0.4       1.0
 4 N  s               0.0       1.7       0.0      12.4       0.6       3.4
 4 N  pz             49.3       0.1      10.7       0.1       0.1       0.1
 4 N  px              0.0       0.1       0.0       0.1       2.7       1.1
 4 N  py              1.7       3.6       0.4       3.8       3.3       2.5
 4 N  dz2             0.1       0.6       0.8       0.3       2.6       1.0
 4 N  dxz             0.1       0.0       1.9       0.0       0.1       0.0
 4 N  dyz             0.6       0.1       6.8       0.1       0.3       0.0
 4 N  dx2y2           0.0       0.1       0.2       0.6       0.1       1.7
 4 N  dxy             0.0       0.2       0.1       0.3       3.3       0.9
 5 H  s               0.0       0.9       0.0       2.2       0.2       1.5
 5 H  px              0.0       0.0       0.0       0.4       0.1       1.1
 5 H  py              0.0       0.0       0.0       0.6       0.0       0.0
 6 H  s               0.1       0.1       0.0       2.1       0.4       3.1
 6 H  pz              0.0       0.0       0.0       0.6       0.1       1.3
 6 H  px              0.0       0.0       0.0       0.3       0.0       0.1
 6 H  py              0.0       0.0       0.0       0.5       0.7       0.5
 7 H  s               0.1       0.1       0.0       2.1       0.4       3.1
 7 H  pz              0.0       0.0       0.0       0.9       0.0       1.7
 7 H  px              0.0       0.0       0.0       0.3       0.0       0.2
 7 H  py              0.0       0.0       0.0       0.1       0.8       0.1
 8 H  s               0.1       0.0       3.6       1.1       3.3       0.7
 8 H  pz              0.0       0.0       0.0       0.4       1.3       0.5
 8 H  px              0.0       0.1       0.1       0.1       0.0       0.2
 8 H  py              0.0       0.0       0.1       0.1       0.9       0.1
 9 H  s               0.1       0.0       3.6       1.1       3.3       0.7
 9 H  pz              0.0       0.0       0.1       0.5       2.0       0.4
 9 H  px              0.0       0.1       0.1       0.1       0.0       0.2
 9 H  py              0.0       0.0       0.1       0.0       0.2       0.3
10 H  s               0.0       0.4       0.0       8.7       7.8       3.2
10 H  pz              0.8       0.0       0.4       0.0       0.0       0.0
10 H  px              0.0       0.0       0.0       2.4       1.5       0.9
10 H  py              0.0       0.1       0.0       1.2       1.3       0.2
11 H  s               0.0       0.2       0.0       6.9       0.2       4.8
11 H  pz              0.8       0.0       0.4       0.0       0.0       0.0
11 H  px              0.0       0.0       0.0       2.2       0.0       1.8
11 H  py              0.0       0.1       0.0       0.1       0.1       0.0

                     24        25        26        27        28        29   
                   0.14023   0.14266   0.15618   0.16940   0.18948   0.19143
                   0.00000   0.00000   0.00000   0.00000   0.00000   0.00000
                  --------  --------  --------  --------  --------  --------
 0 C  s               0.3       0.1       0.0       0.3       2.8       0.0
 0 C  pz              0.1       0.2      23.8       0.3       0.1      37.6
 0 C  px              5.5      11.1       0.0       8.9       2.0       0.0
 0 C  py              2.3       6.1       0.8       9.6       7.4       1.2
 0 C  dz2             0.1       1.2       0.3       1.2       0.6       0.3
 0 C  dxz             0.0       0.0       0.0       0.0       0.0       1.4
 0 C  dyz             0.0       0.0       3.0       0.0       0.1       2.1
 0 C  dx2y2           0.1       1.2       0.1       1.4       0.2       0.1
 0 C  dxy             0.8       1.0       0.0       0.9       0.9       0.0
 1 C  s               1.5       0.3       0.0       3.3       2.6       0.0
 1 C  pz              0.0       0.6      13.2       0.3       0.9      14.6
 1 C  px              6.9       6.7       0.0      19.3       9.1       0.0
 1 C  py              0.2      15.1       0.4       8.2      19.8       0.6
 1 C  dz2             0.0       0.2       0.2       1.4       0.1       0.0
 1 C  dxz             0.0       0.0       0.3       0.0       0.0       0.4
 1 C  dyz             0.0       0.1       1.7       0.0       0.0       0.1
 1 C  dx2y2           0.0       1.2       0.1       1.7       0.2       0.0
 1 C  dxy             1.0       0.1       0.0       0.3       1.0       0.0
 2 C  s               1.0       4.4       0.0       6.0       6.0       0.0
 2 C  pz              0.2       0.0       9.2       0.1       0.1       1.2
 2 C  px              3.4       1.9       0.0       5.4       1.2       0.0
 2 C  py              3.9       0.3       0.3       1.5       2.0       0.0
 2 C  dz2             0.0       0.8       0.0       0.0       1.0       0.0
 2 C  dxz             0.1       0.0       0.0       0.0       0.0       0.2
 2 C  dyz             0.0       0.1       0.0       0.0       0.2       0.1
 2 C  dx2y2           0.0       0.1       0.0       0.0       0.2       0.0
 2 C  dxy             2.3       0.3       0.0       0.0       0.1       0.0
 3 O  s               0.8       1.0       0.0       1.0       0.4       0.0
 3 O  pz              0.0       0.0       1.0       0.0       0.0       0.7
 3 O  px              1.5       0.3       0.0       2.1       0.4       0.0
 3 O  py              0.7       0.3       0.0       0.4       0.0       0.0
 3 O  dz2             0.1       1.3       0.0       1.2       0.9       0.1
 3 O  dxz             0.0       0.0       0.4       0.0       0.1       0.0
 3 O  dyz             0.0       0.2       0.1       0.0       0.1       0.4
 3 O  dx2y2           0.1       0.2       0.0       0.5       0.3       0.0
 3 O  dxy             0.0       0.3       0.0       1.4       2.1       0.0
 4 N  s               1.1       0.0       0.0       0.0       1.0       0.0
 4 N  pz              0.0       0.0       2.3       0.0       0.1       0.9
 4 N  px             16.4       2.1       0.0       0.7       1.3       0.0
 4 N  py              0.1       0.5       0.1       0.2       2.3       0.0
 4 N  dz2             1.1       5.8       0.0       0.3       0.0       0.1
 4 N  dxz             0.4       0.0       0.7       0.0       0.0       3.0
 4 N  dyz             0.0       0.1       0.2       0.1       0.5       0.9
 4 N  dx2y2           2.7       5.6       0.0       0.5      11.6       0.1
 4 N  dxy            11.7       0.2       0.0       0.8       0.7       0.1
 5 H  s               1.4      14.5       0.0       1.3       2.3       0.0
 5 H  pz              0.0       0.0       0.7       0.0       0.0       2.9
 5 H  px              0.0       3.4       0.0       1.2       0.7       0.0
 5 H  py              0.3       0.8       0.0       1.2       0.3       0.1
 6 H  s               0.2       1.8      10.9       3.8       2.1       9.5
 6 H  pz              0.1       0.8       0.8       0.6       1.4       0.0
 6 H  px              0.3       0.4       0.0       0.1       0.4       0.4
 6 H  py              0.0       0.0       2.9       0.1       0.0       1.2
 7 H  s               0.1       1.8      11.1       3.8       1.7       9.8
 7 H  pz              0.0       0.7       2.1       0.7       1.1       0.2
 7 H  px              0.3       0.4       0.0       0.1       0.3       0.4
 7 H  py              0.0       0.1       1.7       0.0       0.3       1.0
 8 H  s               0.1       0.1       4.0       2.4       1.2       2.7
 8 H  pz              0.2       0.0       0.4       0.6       0.2       0.4
 8 H  px              0.5       0.0       0.0       0.4       0.6       0.5
 8 H  py              0.1       0.7       1.3       0.0       0.4       0.6
 9 H  s               0.1       0.1       4.1       2.2       1.4       2.5
 9 H  pz              0.3       0.0       1.0       0.4       0.4       0.7
 9 H  px              0.5       0.0       0.0       0.5       0.6       0.4
 9 H  py              0.0       0.6       0.7       0.2       0.2       0.2
10 H  s               4.4       1.0       0.0       0.4       1.0       0.0
10 H  pz              0.0       0.0       0.0       0.0       0.0       0.1
10 H  px              0.3       0.4       0.0       0.0       0.1       0.0
10 H  py              1.0       0.0       0.0       0.0       0.8       0.0
11 H  s              17.1       0.7       0.0       0.3       1.1       0.0
11 H  px              4.5       0.0       0.0       0.0       0.6       0.0
11 H  py              1.2       0.0       0.0       0.1       0.2       0.0

                     30        31        32        33        34        35   
                   0.20842   0.22053   0.22780   0.24306   0.26025   0.26824
                   0.00000   0.00000   0.00000   0.00000   0.00000   0.00000
                  --------  --------  --------  --------  --------  --------
 0 C  s               2.2       0.3       0.0       0.0       1.8       0.4
 0 C  pz              0.3       0.3      24.6      21.9       0.3       0.4
 0 C  px              8.4       6.2       0.0       0.0      19.5       0.8
 0 C  py              9.3       8.9       0.8       0.7       8.4      11.8
 0 C  dz2             0.1       0.6       0.1       0.0       0.8       0.1
 0 C  dxz             0.0       0.0       0.2       0.1       0.0       0.0
 0 C  dyz             0.0       0.0       0.9       0.1       0.1       0.0
 0 C  dx2y2           0.4       0.0       0.0       0.0       0.0       0.2
 0 C  dxy             0.0       0.2       0.0       0.0       0.1       0.0
 1 C  s               1.3       2.2       0.0       0.0       0.4       0.2
 1 C  pz              0.4       0.2       9.0      17.4       0.0       0.3
 1 C  px              0.1       2.3       0.0       0.0       4.9       6.4
 1 C  py             13.5       4.9       0.3       0.6       0.9      11.3
 1 C  dz2             2.2       0.4       0.3       0.0       0.1       0.4
 1 C  dyz             0.1       0.0       2.6       0.3       0.0       0.1
 1 C  dx2y2           0.6       0.0       0.1       0.0       0.0       0.6
 1 C  dxy             0.6       0.1       0.0       0.0       0.8       0.5
 2 C  s               1.2      11.1       0.0       0.0       2.9       1.5
 2 C  pz              0.2       0.3      12.5      38.8       0.2       0.2
 2 C  px             12.5       4.1       0.0       0.0       1.5       6.6
 2 C  py              7.9       6.6       0.5       1.3       4.2       7.4
 2 C  dz2             0.0       0.6       0.0       0.0       0.0       0.3
 2 C  dxz             0.0       0.0       0.5       0.0       0.0       0.0
 2 C  dx2y2           0.3       0.0       0.0       0.0       0.0       0.0
 2 C  dxy             0.5       0.1       0.0       0.0       0.5       0.4
 3 O  s               3.9       0.6       0.0       0.0       0.5       2.2
 3 O  pz              0.1       0.0       0.6       2.8       0.0       0.0
 3 O  px              1.6       0.2       0.0       0.0       0.7       2.9
 3 O  py              1.8       1.0       0.0       0.1       1.2       1.1
 3 O  dz2             0.0       1.9       0.0       0.0       0.8       0.4
 3 O  dxz             0.1       0.0       2.0       0.1       0.0       0.0
 3 O  dyz             0.0       0.3       0.1       0.3       0.1       0.1
 3 O  dx2y2           0.5       0.2       0.0       0.0       0.3       0.2
 3 O  dxy             2.2       0.9       0.1       0.0       0.1       1.2
 4 N  s               1.9       0.9       0.0       0.0       1.8       1.1
 4 N  pz              0.2       0.0       6.3       3.7       0.4       0.2
 4 N  px              0.9       0.4       0.0       0.0       1.6       0.5
 4 N  py              6.1       0.8       0.2       0.1      12.3       6.1
 4 N  dz2             0.1      11.3       0.1       0.0       1.9      12.9
 4 N  dxz             0.0       0.0       2.1       0.2       0.0       0.1
 4 N  dyz             0.1       0.8       1.2       0.1       1.5       1.1
 4 N  dx2y2           2.2       1.3       0.1       0.0      16.5       0.2
 4 N  dxy             1.1       0.0       0.1       0.0       0.5       6.5
 5 H  s               0.9       8.3       0.0       0.0       1.9       0.7
 5 H  px              0.0       2.3       0.0       0.0       0.2       0.0
 5 H  py              0.2       0.6       0.0       0.0       0.0       0.1
 6 H  s               1.9       1.1       2.1       2.6       0.4       0.6
 6 H  pz              0.3       0.7       0.3       0.4       0.2       0.1
 6 H  px              0.0       0.1       0.1       0.1       0.1       0.0
 6 H  py              0.3       0.0       0.0       1.1       0.5       0.1
 7 H  s               1.8       1.2       2.2       2.7       0.5       0.6
 7 H  pz              0.5       0.6       0.3       1.0       0.0       0.1
 7 H  px              0.0       0.1       0.0       0.2       0.1       0.0
 7 H  py              0.1       0.0       0.0       0.6       0.7       0.0
 8 H  s               2.5       3.4      11.4       0.7       0.4       0.7
 8 H  pz              0.9       1.4       0.3       0.3       0.2       0.9
 8 H  px              0.0       0.1       0.0       0.1       0.3       0.5
 8 H  py              0.1       0.4       2.9       0.1       0.0       0.4
 9 H  s               2.4       3.1      11.8       0.7       0.4       0.7
 9 H  pz              0.6       1.7       1.3       0.3       0.2       0.4
 9 H  px              0.0       0.1       0.0       0.1       0.3       0.4
 9 H  py              0.3       0.0       2.0       0.0       0.0       0.8
10 H  s               0.8       0.7       0.0       0.0       0.9       4.9
10 H  px              0.1       0.2       0.0       0.0       0.3       0.2
10 H  py              0.7       0.0       0.0       0.0       1.5       0.5
11 H  s               0.0       3.0       0.0       0.0       1.7       0.2
11 H  px              0.0       0.7       0.0       0.0       0.1       0.0
11 H  py              0.2       0.0       0.0       0.0       0.9       0.2

                     36        37        38        39        40        41   
                   0.28939   0.30355   0.35022   0.39683   0.39773   0.41865
                   0.00000   0.00000   0.00000   0.00000   0.00000   0.00000
                  --------  --------  --------  --------  --------  --------
 0 C  s               0.0       1.0       6.4       0.0       0.1       3.0
 0 C  pz              0.7       0.1       0.1       0.6       0.3       0.1
 0 C  px              0.0       3.0      14.9       0.1       4.3       1.2
 0 C  py              0.0       3.3       5.1       0.2       5.8       2.3
 0 C  dz2             0.0       0.2       0.1       0.0       0.0       0.0
 0 C  dxz             0.8       0.0       0.0       0.0       0.0       0.0
 0 C  dx2y2           0.0       0.0       0.0       0.0       0.0       0.2
 0 C  dxy             0.0       1.0       0.3       0.0       1.0       0.1
 1 C  s               0.0       3.2       9.2       0.0       0.5       1.5
 1 C  pz             38.3       0.2       0.3       0.5       0.1       0.0
 1 C  px              0.0       7.4       0.1       0.1      10.7      15.1
 1 C  py              1.3       7.5       8.0       0.0       1.7       0.4
 1 C  dz2             0.1       0.0       0.4       0.0       0.1       0.1
 1 C  dyz             1.2       0.0       0.0       0.0       0.0       0.0
 1 C  dx2y2           0.0       0.0       0.5       0.0       0.0       0.2
 1 C  dxy             0.0       0.0       1.5       0.0       0.2       0.2
 2 C  s               0.0       1.5       0.1       0.0       1.3      12.0
 2 C  pz             13.4       0.7       0.2       8.5       0.1       0.4
 2 C  px              0.0       4.2       5.6       0.2      10.7       3.1
 2 C  py              0.4      19.8       5.3       0.3       0.9      10.2
 2 C  dz2             0.0       1.3       0.4       0.1       1.5       1.3
 2 C  dxz             0.0       0.0       0.0       0.1       0.0       0.0
 2 C  dyz             0.0       0.1       0.0       0.2       0.3       0.2
 2 C  dx2y2           0.0       0.0       1.8       0.0       0.3       0.0
 2 C  dxy             0.0       0.2       0.3       0.0       0.0       0.4
 3 O  s               0.0       0.7       0.3       0.0       0.2       0.2
 3 O  pz              7.9       0.1       0.1       4.5       0.0       0.3
 3 O  px              0.0       2.6       6.8       0.1       9.4       2.1
 3 O  py              0.3       4.2       4.3       0.1       1.1       7.4
 3 O  dz2             0.2       2.1       0.0       0.3       0.5       1.8
 3 O  dxz             0.5       0.1       0.0       0.3       0.0       0.0
 3 O  dyz             2.1       0.2       0.1       3.3       0.2       0.0
 3 O  dx2y2           0.1       0.1       4.7       0.3       3.8       1.8
 3 O  dxy             0.0       2.3       0.4       0.0       0.5       0.1
 4 N  s               0.0       0.2       0.2       0.0       2.5       1.7
 4 N  pz              2.5       0.1       0.0      56.6       0.1       0.4
 4 N  px              0.0       1.4       0.2       0.0       1.8       1.5
 4 N  py              0.1       2.1       1.4       1.0      13.6      10.4
 4 N  dz2             0.0       2.7       0.3       1.9       0.3       1.8
 4 N  dxz            21.6       0.4       0.0       0.5       0.0       0.0
 4 N  dyz             0.1       0.4       0.1      16.5       0.1       0.4
 4 N  dx2y2           0.0       0.0       0.5       0.3       3.7       1.2
 4 N  dxy             0.8       8.8       0.2       0.0       1.7       0.3
 5 H  s               0.0       6.4       2.2       0.0       2.5       3.8
 5 H  pz              0.6       0.0       0.0       0.0       0.0       0.0
 5 H  px              0.0       0.8       0.3       0.0       0.2       1.4
 5 H  py              0.0       0.8       0.0       0.0       0.5       0.1
 6 H  s               0.1       0.0       3.8       0.1       0.0       1.2
 6 H  pz              0.0       0.0       0.6       0.0       0.0       0.7
 6 H  px              0.8       0.5       0.0       0.0       0.4       0.1
 6 H  py              0.0       0.4       0.7       0.1       0.2       0.0
 7 H  s               0.1       0.0       3.8       0.2       0.0       1.2
 7 H  pz              0.0       0.0       1.0       0.1       0.0       0.7
 7 H  px              0.9       0.5       0.0       0.1       0.4       0.1
 7 H  py              0.0       0.3       0.3       0.0       0.2       0.0
 8 H  s               1.7       0.4       1.9       0.8       2.9       1.6
 8 H  pz              0.4       0.0       0.4       0.1       0.9       0.0
 8 H  px              0.1       0.1       0.0       0.2       0.0       0.0
 8 H  py              0.0       0.1       0.3       0.2       0.1       0.7
 9 H  s               1.7       0.4       1.9       0.2       3.4       1.6
 9 H  pz              0.3       0.0       0.6       0.0       1.1       0.1
 9 H  px              0.1       0.1       0.0       0.2       0.0       0.0
 9 H  py              0.1       0.0       0.1       0.1       0.0       0.6
10 H  s               0.0       1.0       0.6       0.0       3.7       0.4
10 H  pz              0.3       0.0       0.0       0.3       0.0       0.0
10 H  px              0.0       0.1       0.4       0.0       0.6       0.3
10 H  py              0.0       0.4       0.0       0.0       0.2       0.4
11 H  s               0.0       2.4       0.2       0.0       2.0       0.8
11 H  pz              0.3       0.1       0.0       0.3       0.0       0.0
11 H  px              0.0       0.0       0.1       0.0       0.5       0.7
11 H  py              0.0       1.5       0.1       0.0       0.3       0.0

                     42        43        44        45        46        47   
                   0.44888   0.44926   0.47257   0.49209   0.51665   0.52440
                   0.00000   0.00000   0.00000   0.00000   0.00000   0.00000
                  --------  --------  --------  --------  --------  --------
 0 C  s               0.1       5.5       6.5      11.2       0.0       2.9
[...]
 3 O  pz              0.0       0.1       0.0       0.1       0.2       0.0
 3 O  px              0.0       2.6       0.0       0.0       2.4       0.1
 3 O  py              0.0       4.0       0.1       0.0       4.9       0.1
 3 O  dz2             0.0       0.1       0.0       0.0       0.1       0.0
 3 O  dxz             0.3       0.0       0.0       0.7       0.0       0.1
 3 O  dyz             0.0       0.5       0.0       0.4       1.0       0.0
 3 O  dx2y2           0.0      17.2       0.3       0.0      22.9       0.2
 3 O  dxy             0.0       0.0       0.0       0.0       0.0       1.9
 4 N  s               0.0       1.0       0.0       0.0       0.6      22.6
 4 N  px              0.0       1.6       0.1       0.0       2.1       0.1
 4 N  py              0.0       3.0       0.1       0.0       2.5       2.4
 4 N  dz2             0.0       0.2       0.0       0.0       0.1      32.5
 4 N  dyz             0.3       0.1       0.0       0.1       0.0       3.4
 4 N  dx2y2           0.0       1.0       0.0       0.0       1.0       0.1
 4 N  dxy             0.0       0.1       0.0       0.0       0.2       0.1
 5 H  s               0.0       0.0      11.3       0.0       0.3       0.0
 5 H  pz              1.2       0.0       0.2       0.0       0.0       0.0
 5 H  px              0.0       0.1      21.7       0.0       0.9       0.0
 5 H  py              0.0       0.4       5.8       0.0       0.0       0.0
 6 H  s               6.1       1.0       1.7       1.9       0.6       0.0
 6 H  pz              5.9       2.4       2.7       2.1       1.2       0.0
 6 H  px              0.5       0.2       0.5       0.0       0.0       0.0
 6 H  py              8.4       1.2       1.1       2.9       0.7       0.0
 7 H  s               6.2       1.0       1.6       2.0       0.6       0.0
 7 H  pz             11.1       3.3       3.5       4.1       1.8       0.1
 7 H  px              0.4       0.1       0.5       0.0       0.0       0.0
 7 H  py              3.4       0.2       0.1       1.2       0.2       0.0
 8 H  s               2.0       1.0       0.2       6.0       1.6       0.0
 8 H  pz              1.5       2.6       1.2       5.0       3.3       0.0
 8 H  px              0.5       0.2       0.0       0.1       0.3       0.0
 8 H  py              2.8       1.3       0.0       8.9       1.1       0.0
 9 H  s               2.0       1.0       0.3       6.0       1.6       0.0
 9 H  pz              3.1       3.7       1.1      10.1       4.3       0.0
 9 H  px              0.4       0.2       0.0       0.1       0.3       0.0
 9 H  py              1.2       0.2       0.1       3.9       0.1       0.0
10 H  s               0.0       0.3       0.0       0.0       0.5       1.9
10 H  px              0.0       0.1       0.2       0.0       0.2       4.5
10 H  py              0.0       1.1       0.1       0.0       1.6       3.3
11 H  s               0.0       0.1       0.1       0.0       0.1       3.1
11 H  px              0.0       0.0       0.1       0.0       0.1      10.0
11 H  py              0.0       0.2       0.0       0.0       0.2       1.1

                    132       133       134       135       136       137   
                   4.10913   4.26327   4.48001  21.92743  21.95462  22.18317
                   0.00000   0.00000   0.00000   0.00000   0.00000   0.00000
                  --------  --------  --------  --------  --------  --------
 0 C  s               0.0       0.0       0.0      79.2      18.8       1.7
 0 C  px              0.1       0.0       0.0       0.0       0.0       0.0
 0 C  dxy             0.2       0.0       0.0       0.0       0.0       0.0
 1 C  s               0.1       0.2       0.1      20.1      77.1       2.4
 1 C  px              0.2       0.2       0.0       0.0       0.0       0.0
 1 C  dx2y2           0.1       0.2       0.0       0.0       0.0       0.0
 1 C  dxy             0.6       0.0       0.0       0.0       0.0       0.0
 2 C  s               3.5       0.8       4.8       0.3       3.8      95.0
 2 C  pz              0.2       0.0       0.1       0.0       0.0       0.0
 2 C  px              0.4       0.8       4.0       0.0       0.0       0.1
 2 C  py              4.7       0.6       3.3       0.0       0.0       0.0
 2 C  dz2             0.7       0.3       1.1       0.0       0.0       0.0
 2 C  dxz             0.0       0.0       0.1       0.0       0.0       0.0
 2 C  dyz             0.8       0.0       0.1       0.0       0.0       0.0
 2 C  dx2y2          10.2       0.8       0.1       0.0       0.0       0.0
 2 C  dxy             0.1       0.2       5.1       0.0       0.0       0.0
 3 O  s               0.8       3.9      15.4       0.0       0.0       0.2
 3 O  pz              0.0       0.1       0.2       0.0       0.0       0.0
 3 O  px              1.5       1.9      10.7       0.0       0.0       0.1
 3 O  py              0.1       2.6       7.7       0.0       0.0       0.1
 3 O  dz2             0.9       1.6       6.2       0.0       0.0       0.0
 3 O  dxz             0.0       0.1       0.6       0.0       0.0       0.0
 3 O  dyz             0.0       0.2       0.4       0.0       0.0       0.0
 3 O  dx2y2           2.7       0.2       0.5       0.0       0.0       0.0
 3 O  dxy             0.1       3.7      21.3       0.0       0.0       0.0
 4 N  s               0.7       0.3       0.3       0.1       0.0       0.1
 4 N  pz              0.5       0.0       0.0       0.0       0.0       0.0
 4 N  px              1.5      12.5       3.6       0.0       0.0       0.0
 4 N  py             14.4       1.1       0.1       0.0       0.0       0.1
 4 N  dz2             0.3       0.4       0.5       0.0       0.0       0.0
 4 N  dxz             0.1       1.1       0.2       0.0       0.0       0.0
 4 N  dyz             0.9       0.2       0.0       0.0       0.0       0.0
 4 N  dx2y2          33.7       2.4       2.7       0.0       0.0       0.0
 4 N  dxy             3.7      31.7       4.2       0.0       0.0       0.0
10 H  s               2.3       8.9       0.9       0.0       0.0       0.0
10 H  pz              0.1       0.1       0.0       0.0       0.0       0.0
10 H  px              0.6       7.5       0.5       0.0       0.0       0.0
10 H  py              2.8       4.0       0.2       0.0       0.0       0.0
11 H  s               3.7       5.1       2.2       0.0       0.0       0.0
11 H  px              3.9       6.0       2.3       0.0       0.0       0.0
11 H  py              2.4       0.0       0.2       0.0       0.0       0.0

                    138       139   
                  31.85346  43.68491
                   0.00000   0.00000
                  --------  --------
 3 O  s               0.0      99.9
 4 N  s              99.7       0.0


                      *****************************
                      * MAYER POPULATION ANALYSIS *
                      *****************************

  NA   - Mulliken gross atomic population
  ZA   - Total nuclear charge
  QA   - Mulliken gross atomic charge
  VA   - Mayer's total valence
  BVA  - Mayer's bonded valence
  FA   - Mayer's free valence

  ATOM       NA         ZA         QA         VA         BVA        FA
  0 C      6.5238     6.0000    -0.5238     3.7839     3.7839     0.0000
  1 C      6.2354     6.0000    -0.2354     3.6443     3.6443     0.0000
  2 C      5.7391     6.0000     0.2609     4.1055     4.1055    -0.0000
  3 O      8.4077     8.0000    -0.4077     2.0127     2.0127    -0.0000
  4 N      7.3850     7.0000    -0.3850     2.9539     2.9539    -0.0000
  5 H      0.8441     1.0000     0.1559     0.9609     0.9609     0.0000
  6 H      0.8456     1.0000     0.1544     0.9594     0.9594     0.0000
  7 H      0.8451     1.0000     0.1549     0.9593     0.9593     0.0000
  8 H      0.8367     1.0000     0.1633     0.9587     0.9587     0.0000
  9 H      0.8366     1.0000     0.1634     0.9586     0.9586     0.0000
 10 H      0.7447     1.0000     0.2553     0.9284     0.9284    -0.0000
 11 H      0.7563     1.0000     0.2437     0.9449     0.9449    -0.0000

  Mayer bond orders larger than 0.100000
B(  0-C ,  1-C ) :   0.8600 B(  0-C ,  5-H ) :   0.9550 B(  0-C ,  6-H ) :   0.9838 
B(  0-C ,  7-H ) :   0.9840 B(  1-C ,  2-C ) :   1.0094 B(  1-C ,  8-H ) :   0.9277 
B(  1-C ,  9-H ) :   0.9273 B(  2-C ,  3-O ) :   1.9587 B(  2-C ,  4-N ) :   1.0973 
B(  4-N , 10-H ) :   0.9059 B(  4-N , 11-H ) :   0.9205 

-------
TIMINGS
-------

Total SCF time: 0 days 0 hours 0 min 18 sec 

Total time                  ....      18.106 sec
Sum of individual times     ....      17.694 sec  ( 97.7%)

SCF preparation             ....       1.173 sec  (  6.5%)
Fock matrix formation       ....      13.874 sec  ( 76.6%)
  Startup                   ....       0.008 sec  (  0.1% of F)
  Split-RI-J                ....       1.760 sec  ( 12.7% of F)
  XC integration            ....      11.574 sec  ( 83.4% of F)
    Basis function eval.    ....       1.719 sec  ( 14.9% of XC)
    Density eval.           ....       2.803 sec  ( 24.2% of XC)
    XC-Functional eval.     ....       1.561 sec  ( 13.5% of XC)
    XC-Potential eval.      ....       2.843 sec  ( 24.6% of XC)
Diagonalization             ....       0.000 sec  (  0.0%)
Density matrix formation    ....       0.044 sec  (  0.2%)
Total Energy calculation    ....       0.002 sec  (  0.0%)
Population analysis         ....       2.472 sec  ( 13.7%)
Orbital Transformation      ....       0.014 sec  (  0.1%)
Orbital Orthonormalization  ....       0.000 sec  (  0.0%)
DIIS solution               ....       0.097 sec  (  0.5%)
  MO trafo                  ....       0.000 sec  (  0.0 % of DIIS)
  Orb grad                  ....       0.000 sec  (  0.0 % of DIIS)
  Energy W gradient         ....       0.000 sec  (  0.0 % of DIIS)
  DIIS error                ....       0.006 sec  (  6.0 % of DIIS)
  DIIS work                 ....       0.082 sec  ( 84.0 % of DIIS)
  Form Q                    ....       0.000 sec  (  0.0 % of DIIS)
  Form QpQm                 ....       0.000 sec  (  0.0 % of DIIS)
  Exp/Cayley                ....       0.000 sec  (  0.0 % of DIIS)
  Orb update                ....       0.000 sec  (  0.0 % of DIIS)
  Wake-sleep                ....       0.002 sec  (  1.6 % of DIIS)
SOSCF solution              ....       0.016 sec  (  0.1%)
  MO trafo                  ....       0.010 sec  ( 61.1 % of SOSCF)
  Orb grad                  ....       0.000 sec  (  0.8 % of SOSCF)
  Rot update                ....       0.002 sec  (  9.8 % of SOSCF)
  Step                      ....       0.005 sec  ( 28.0 % of SOSCF)
Finished LeanSCF after  23.6 sec

Maximum memory used throughout the entire LEANSCF-calculation: 14.6 MB


-------------------------------------------------------------------------------
                          DFT DISPERSION CORRECTION                            
                                                                               
                                DFTD4 V3.4.0                                   
-------------------------------------------------------------------------------
The R2SCAN3C composite method is recognized
Using three-body term ABC
Active option DFTDOPT                   ...         5   

-------------------------   ----------------
Dispersion correction           -0.002476578
-------------------------   ----------------

------------------   -----------------
gCP correction             0.008490285
------------------   -----------------

-------------------------   --------------------
FINAL SINGLE POINT ENERGY      -248.471851617305
-------------------------   --------------------


------------------------------------------------------------------------------
                              ORCA PROPERTY CALCULATIONS
------------------------------------------------------------------------------

GBWName                                 ... sp.gbw
Number of atoms                         ...     12
Number of basis functions               ...    140
Max core memory                         ...   1024 MB

Electric properties:
Dipole moment                           ... YES
Quadrupole moment                       ...  NO
Static polarizability (Dipole/Dipole)   ...  NO
Static polarizability (Dipole/Quad.)    ...  NO
Static polarizability (Quad./Quad.)     ...  NO
Static polarizability (Velocity)        ...  NO

Atomic electric properties:
Dipole moment                           ...  NO
Quadrupole moment                       ...  NO
Static polarizability                   ...  NO

Choice of electric origin               ... Center of mass
Position of electric origin             ...    -0.000027     0.000026    -0.000004

General magnetic properties:
Magnetizability                         ...  NO

EPR properties:
g-Tensor (aka g-matrix)                 ...  NO
Zero-Field splitting spin-orbit         ...  NO
Zero-field splitting spin-spin          ...  NO
Hyperfine couplings                     ...  NO (   0 nuclei)
Quadrupole couplings                    ...  NO (   0 nuclei)
Contact density                         ...  NO (   0 nuclei)

NMR properties:
Chemical shifts                         ...  NO (   0 nuclei)
Spin-rotation constants                 ...  NO (   0 nuclei)
Spin-spin couplings                     ...  NO (   0 nuclei,    0 pairs)

Choice of magnetic origin               ... GIAO
Position of magnetic origin             ...     0.000000     0.000000     0.000000

Properties with geometric perturbations:
SCF Hessian                             ...  NO
IR spectrum                             ...  NO
VCD spectrum                            ...  NO
X-ray spectroscopy properties:
SCF XES/XAS/RIXS spectra                ...  NO


-------------
DIPOLE MOMENT
-------------

Method             : SCF
Type of density    : Electron Density
Multiplicity       :   1
Irrep              :   0
Energy             :  -248.4778653249121305 Eh
Relativity type    : 
Basis              : AO
                                X                 Y                 Z
Electronic contribution:      5.529412580      -1.578999380       0.223321155
Nuclear contribution   :     -6.510655955       2.752259478      -0.425193184
                        -----------------------------------------
Total Dipole Moment    :     -0.981243375       1.173260098      -0.201872029
                        -----------------------------------------
Magnitude (a.u.)       :      1.542767038
Magnitude (Debye)      :      3.921402171



--------------------
Rotational spectrum 
--------------------
 
Rotational constants in cm-1:             0.317456             0.130137             0.095583 
Rotational constants in MHz :          9517.095894          3901.415674          2865.492571 

Dipole components along the rotational axes: 
x,y,z [a.u.] :    -1.188616     0.983524     0.001881 
x,y,z [Debye]:    -3.021221     2.499920     0.004781 

 

Dipole moment calculation done in   1.2 sec 

Maximum memory used throughout the entire PROP-calculation: 8.3 MB

--------------------------------
SUGGESTED CITATIONS FOR THIS RUN
--------------------------------

Below you find a list of papers that are relevant to this ORCA run
We neither can nor want to force you to cite these papers, but we appreciate if you do
You receive ORCA, which is the product of decades of hard work by many enthusiastic individuals, for free
The only thing we kindly ask in return is that you cite our papers,
We deeply appreciate it, if you show your appreciation for ORCA by not just citing the generic ORCA reference.

Please note that relegating all ORCA citations to the supporting information does *not* help us.
SI sections are not indexed - citations you put there will not count into any citation statistics
But we need these citations in order to attract the funding resources that allow us to do what we are doing

Therefore, if you are a happy ORCA user, please consider citing a few of the papers listed below in the main body of your paper

In addition to the list printed below, the program has created the file sp.bibtex that contains the list in bibtex format
You can import this file easily into all common literature databanks and citation aid programs


List of essential papers. We consider these as the minimum necessary citations

  1. Neese,F.
     Software update: the ORCA program system, version 5.0
     WIRES Comput. Molec. Sci., 2022 12(1)e1606
     doi.org/10.1002/wcms.1606
  2. Grimme,S.; Hansen,A.; Ehlert,S.; Mewes,J.
     r2SCAN-3c: A 'Swiss army knife' composite electronic-structure method
     J. Chem. Phys., 2021 154 064103
     doi.org/10.1063/5.0040021

List of papers to cite with high priority. The work reported in these papers was absolutely
necessary for this run to complete.
Our perspective: the developers of density functionals and basis sets usually get cited in chemistry papers
Good! But without the algorithms to do something with them, the functionals or basis sets would not do anything.
Hence, in our opinion, the algorithm design and method developments papers are equally worthy of getting cited

  1. Neese,F.
     An improvement of the resolution of the identity approximation for the formation of the Coulomb matrix
     J. Comp. Chem., 2003 24(14)1740-1747
     doi.org/10.1002/jcc.10318
  2. Neese,F.
     The SHARK Integral Generation and Digestion System
     J. Comp. Chem., 2022  1-16
     doi.org/10.1002/jcc.26942
  3. Lehtola,S.; Steigemann,C.; Oliveira,M.; Marques,M.
     Recent developments in Libxc - A comprehensive library of functionals for density functional theory
     Software X, 2018 7 
     doi.org/10.1016/j.softx.2017.11.002
  4. Caldeweyher,E.; Bannwarth,C.; Grimme,S.
     Extension of the D3 dispersion coefficient model
     J. Chem. Phys., 2017 147 034112
     doi.org/10.1063/1.4993215
  5. Caldeweyher,E.; Ehlert,S.; Hansen,A.; Neugebauer,H.; Spicher,S.; Bannwarth,C.; Grimme,S.
     A generally applicable atomic-charge dependent London dispersion correction
     J. Chem. Phys., 2019 150 154122
     doi.org/10.1063/1.5090222
  6. Caldeweyher,E.; Mewes,J.; Ehlert,S.; Grimme,S.
     Extension and evaluation of the D4 London-dispersion model for periodic systems
     Phys. Chem. Chem. Phys., 2020 22(16)8499-8512
     doi.org/10.1039/D0CP00502A
  7. Wittmann,L.; Gordiy,I.; Friede,M.; Helmich-Paris,B.; Grimme,S.; Hansen,A.; Bursch,M.
     Extension of the D3 and D4 London Dispersion Corrections to the full Actinides Series
     Phys. Chem. Chem. Phys., 2024 26(32)21379-21394
     doi.org/https://doi.org/10.1039/D4CP01514B 

List of suggested additional citations. These are papers that are important in the 'surrounding' of 
of this run, or papers that preceded the highly important papers. If you like your results we are grateful for a citation.

  1. Neese,F.
     The ORCA program system
     WIRES Comput. Molec. Sci., 2012 2(1)73-78
     doi.org/10.1002/wcms.81
  2. Neese,F.
     Software update: the ORCA program system, version 4.0
     WIRES Comput. Molec. Sci., 2018 8(1)1-6
     doi.org/10.1002/wcms.1327
  3. Neese,F.; Wennmohs,F.; Becker,U.; Riplinger,C.
     The ORCA quantum chemistry program package
     J. Chem. Phys., 2020 152 Art. No. L224108
     doi.org/10.1063/5.0004608

List of optional additional citations

  1. Neese,F.
     Approximate second-order SCF convergence for spin unrestricted wavefunctions
     Chem. Phys. Lett., 2000 325(1-3)93-98
     doi.org/10.1016/s0009-2614(00)00662-x

Timings for individual modules:

Sum of individual times          ...       25.917 sec (=   0.432 min)
Startup calculation              ...        0.794 sec (=   0.013 min)   3.1 %
SCF iterations                   ...       23.685 sec (=   0.395 min)  91.4 %
Property calculations            ...        1.439 sec (=   0.024 min)   5.6 %
                             ****ORCA TERMINATED NORMALLY****
TOTAL RUN TIME: 0 days 0 hours 0 minutes 29 seconds 264 msec
