31
 energy: -746.594470048852 gnorm: 0.001366667648 xtb: 6.7.1 (edcfbbe)
C            2.19302075129848        2.95660682774005        0.88006398928298
C            2.17715633412141        1.75914267265252       -0.04847515680903
C            2.97785240928630        0.54103260731345        0.48257014621056
C            2.04346012865352       -0.60587601439342        0.20970640806471
C            2.21271021329346       -1.97873543615792        0.27676646227499
C            1.11556573251032       -2.80673455428768        0.02465344631688
C           -0.12617120952256       -2.26073108517498       -0.28978620562087
C           -0.29177317354580       -0.88194994432754       -0.36112329111361
C            0.79920933477108       -0.06318921533770       -0.10470433895800
O            0.77277806141254        1.29268386568149       -0.12046477418359
O           -1.48897272400992       -0.29675168010803       -0.74906332052150
C           -2.56233970659576       -0.42074925313749        0.12200806634091
O           -2.52761975290133       -1.00679739439000        1.17871253237036
N           -3.63795322798199        0.19846870509767       -0.42741553697616
C           -4.86909001258887        0.36971159978049        0.32307674443191
C            2.58966908182983        2.11756468895691       -1.46968808963422
H            1.55742166296055        3.75525479159017        0.48682405125576
H            1.82716375003225        2.67499332041029        1.87141485844964
H            3.21329455118308        3.34113778582992        0.97771485542323
H            3.94120621203797        0.44741473639007       -0.02921927934957
H            3.17626170285578        0.63489169164082        1.55840698121132
H            3.17934318774888       -2.40564866993804        0.52569154496333
H            1.22604831378037       -3.88435644419660        0.07347880052934
H           -0.98261578464995       -2.89811137969993       -0.47925641667450
H           -3.47528358127818        0.75921273502737       -1.24787301635843
H           -5.72101519569605        0.36520380807698       -0.36309121792938
H           -4.87935217229540        1.30413443755069        0.89988189703957
H           -4.96981831363720       -0.46534199368324        1.01909556849573
H            3.61430265915933        2.50339125011520       -1.48100265713167
H            1.92194282665666        2.88109802687005       -1.87816623483239
H            2.54380995775558        1.23220882758329       -2.11210119574792
31
 energy: -746.594474479031 gnorm: 0.000676486132 xtb: 6.7.1 (edcfbbe)
C            2.19394555863482        2.95694308471398        0.87979300372408
C            2.17713868953832        1.75947688932137       -0.04866443373792
C            2.97679856336275        0.54104251351054        0.48263516407588
C            2.04252453666497       -0.60567360029539        0.21035801298158
C            2.21148545949192       -1.97835529685361        0.27855909084533
C            1.11464637986889       -2.80643698877885        0.02533279541676
C           -0.12667911236420       -2.26061259357165       -0.29094382655685
C           -0.29184304856532       -0.88181196931139       -0.36286487064707
C            0.79884251602294       -0.06298656462795       -0.10552313758331
O            0.77245293408468        1.29307232437094       -0.12163599148607
O           -1.48933663406252       -0.29685172119270       -0.75072047594681
C           -2.56158827947661       -0.42036867545252        0.12105640587107
O           -2.52715886434730       -1.00888675871819        1.17638568136328
N           -3.63810183228185        0.19808999798669       -0.42806710430845
C           -4.86838902141624        0.36860598007823        0.32393840221463
C            2.58988409756837        2.11789691081148       -1.46971412519274
H            1.55980415078292        3.75652937133807        0.48668972525728
H            1.82830159877034        2.67590015141735        1.87094430548165
H            3.21473262011890        3.33952812490493        0.97694628558184
H            3.93996654964821        0.44687027073290       -0.02853603789033
H            3.17485831276445        0.63577520005005        1.55803348473364
H            3.17755349468168       -2.40560560637353        0.52910701407098
H            1.22546097743768       -3.88392398836990        0.07509131929014
H           -0.98303604239218       -2.89781013709977       -0.48142349704744
H           -3.47523747465665        0.75969015834551       -1.24743222998013
H           -5.72117679980359        0.36549829825786       -0.36068278292696
H           -4.87757734293717        1.30214951611600        0.90173408121172
H           -4.96850092092145       -0.46682105511585        1.01890299179112
H            3.61415479223163        2.50418733839784       -1.48043678223956
H            1.92189277381603        2.88110462971595       -1.87774644226404
H            2.54439202573468        1.23296342307745       -2.11247793842092
31
 energy: -746.594474479031 gnorm: 0.000676486132 xtb: 6.7.1 (edcfbbe)
C            2.19394555863482        2.95694308471398        0.87979300372408
C            2.17713868953832        1.75947688932137       -0.04866443373792
C            2.97679856336275        0.54104251351054        0.48263516407588
C            2.04252453666497       -0.60567360029539        0.21035801298158
C            2.21148545949192       -1.97835529685361        0.27855909084533
C            1.11464637986889       -2.80643698877885        0.02533279541676
C           -0.12667911236420       -2.26061259357165       -0.29094382655685
C           -0.29184304856532       -0.88181196931139       -0.36286487064707
C            0.79884251602294       -0.06298656462795       -0.10552313758331
O            0.77245293408468        1.29307232437094       -0.12163599148607
O           -1.48933663406252       -0.29685172119270       -0.75072047594681
C           -2.56158827947661       -0.42036867545252        0.12105640587107
O           -2.52715886434730       -1.00888675871819        1.17638568136328
N           -3.63810183228185        0.19808999798669       -0.42806710430845
C           -4.86838902141624        0.36860598007823        0.32393840221463
C            2.58988409756837        2.11789691081148       -1.46971412519274
H            1.55980415078292        3.75652937133807        0.48668972525728
H            1.82830159877034        2.67590015141735        1.87094430548165
H            3.21473262011890        3.33952812490493        0.97694628558184
H            3.93996654964821        0.44687027073290       -0.02853603789033
H            3.17485831276445        0.63577520005005        1.55803348473364
H            3.17755349468168       -2.40560560637353        0.52910701407098
H            1.22546097743768       -3.88392398836990        0.07509131929014
H           -0.98303604239218       -2.89781013709977       -0.48142349704744
H           -3.47523747465665        0.75969015834551       -1.24743222998013
H           -5.72117679980359        0.36549829825786       -0.36068278292696
H           -4.87757734293717        1.30214951611600        0.90173408121172
H           -4.96850092092145       -0.46682105511585        1.01890299179112
H            3.61415479223163        2.50418733839784       -1.48043678223956
H            1.92189277381603        2.88110462971595       -1.87774644226404
H            2.54439202573468        1.23296342307745       -2.11247793842092
