      -----------------------------------------------------------      
     |                   =====================                   |     
     |                           x T B                           |     
     |                   =====================                   |     
     |                         S. Grimme                         |     
     |          Mulliken Center for Theoretical Chemistry        |     
     |                    University of Bonn                     |     
      -----------------------------------------------------------      

   * xtb version 6.7.1 (edcfbbe) compiled by 'albert@albert-system' on 2024-07-22

   xtb is free software: you can redistribute it and/or modify it under
   the terms of the GNU Lesser General Public License as published by
   the Free Software Foundation, either version 3 of the License, or
   (at your option) any later version.
   
   xtb is distributed in the hope that it will be useful,
   but WITHOUT ANY WARRANTY; without even the implied warranty of
   MERCHANTABILITY or FITNESS FOR A PARTICULAR PURPOSE.  See the
   GNU Lesser General Public License for more details.
   
   Cite this work as:
   * C. Bannwarth, E. Caldeweyher, S. Ehlert, A. Hansen, P. Pracht,
     J. Seibert, S. Spicher, S. Grimme, WIREs Comput. Mol. Sci., 2020, 11,
     e01493. DOI: 10.1002/wcms.1493
   
   for GFN2-xTB:
   * C. Bannwarth, S. Ehlert and S. Grimme., J. Chem. Theory Comput., 2019,
     15, 1652-1671. DOI: 10.1021/acs.jctc.8b01176
   for GFN1-xTB:
   * S. Grimme, C. Bannwarth, P. Shushkov, J. Chem. Theory Comput., 2017,
     13, 1989-2009. DOI: 10.1021/acs.jctc.7b00118
   for GFN0-xTB:
   * P. Pracht, E. Caldeweyher, S. Ehlert, S. Grimme, ChemRxiv, 2019, preprint.
     DOI: 10.26434/chemrxiv.8326202.v1
   for GFN-FF:
   * S. Spicher and S. Grimme, Angew. Chem. Int. Ed., 2020, 59, 15665-15673.
     DOI: 10.1002/anie.202004239
   
   for ALPB and GBSA implicit solvation:
   * S. Ehlert, M. Stahn, S. Spicher, S. Grimme, J. Chem. Theory Comput.,
     2021, 17, 4250-4261. DOI: 10.1021/acs.jctc.1c00471
   
   for ddCOSMO and CPCM-X implicit solvation:
   * M. Stahn, S. Ehlert, S. Grimme, J. Phys. Chem. A,
     2023, XX, XXXX-XXXX. DOI: 10.1021/acs.jpca.3c04382
   
   for DFT-D4:
   * E. Caldeweyher, C. Bannwarth and S. Grimme, J. Chem. Phys., 2017,
     147, 034112. DOI: 10.1063/1.4993215
   * E. Caldeweyher, S. Ehlert, A. Hansen, H. Neugebauer, S. Spicher,
     C. Bannwarth and S. Grimme, J. Chem. Phys., 2019, 150, 154122.
     DOI: 10.1063/1.5090222
   * E. Caldeweyher, J.-M. Mewes, S. Ehlert and S. Grimme, Phys. Chem. Chem. Phys.
     2020, 22, 8499-8512. DOI: 10.1039/D0CP00502A
   
   for sTDA-xTB:
   * S. Grimme and C. Bannwarth, J. Chem. Phys., 2016, 145, 054103.
     DOI: 10.1063/1.4959605
   
   in the mass-spec context:
   * V. Asgeirsson, C. Bauer and S. Grimme, Chem. Sci., 2017, 8, 4879.
     DOI: 10.1039/c7sc00601b
   * J. Koopman and S. Grimme, ACS Omega 2019, 4, 12, 15120-15133.
     DOI: 10.1021/acsomega.9b02011
   
   for metadynamics refer to:
   * S. Grimme, J. Chem. Theory Comput., 2019, 155, 2847-2862
     DOI: 10.1021/acs.jctc.9b00143
   
   for SPH calculations refer to:
   * S. Spicher and S. Grimme, J. Chem. Theory Comput., 2021, 17, 1701-1714
     DOI: 10.1021/acs.jctc.0c01306
   
   for ONIOM refer to:
   * C. Plett, A. Katbashev, S. Ehlert, S. Grimme, M. Bursch,
     Phys. Chem. Chem. Phys., 2023, 25, 17860-17868. DOI: 10.1039/D3CP02178E
   
   for DIPRO refer to:
   * J. Kohn, N. Gildemeister, S. Grimme, D. Fazzi, A. Hansen,
     J. Chem. Phys., 2023, just accepted.
   
   for PTB refer to:
   * S. Grimme, M. Mueller, A. Hansen, J. Chem. Phys., 2023, 158, 124111.
     DOI: 10.1063/5.0137838
   
   with help from (in alphabetical order)
   P. Atkinson, C. Bannwarth, F. Bohle, G. Brandenburg, E. Caldeweyher
   M. Checinski, S. Dohm, S. Ehlert, S. Ehrlich, I. Gerasimov, C. Hölzer
   A. Katbashev, J. Kohn, J. Koopman, C. Lavigne, S. Lehtola, F. März, M. Müller,
   F. Musil, H. Neugebauer, J. Pisarek, C. Plett, P. Pracht, F. Pultar,
   J. Seibert, P. Shushkov, S. Spicher, M. Stahn, M. Steiner, T. Strunk,
   J. Stückrath, T. Rose, and J. Unsleber
   
 * started run on 2025/04/15 at 20:29:28.999     
   ID    Z sym.   atoms
    1    6 C      1, 3, 4
    2    7 N      2
    3    8 O      5
    4    1 H      6-12

           -------------------------------------------------
          |                Calculation Setup                |
           -------------------------------------------------

          program call               : /software/projects/pawsey0265/mwang1/xtb/bin/xtb xtb_rrho.coord --gfn2 --ohess vtight --chrg 0 --enso --norestart -I rrho-xcontrol-inp --parallel 1
          hostname                   : nid002793
          coordinate file            : xtb_rrho.coord
          omp threads                :                     1


           -------------------------------------------------
          |                 G F N 2 - x T B                 |
           -------------------------------------------------

        Reference                      10.1021/acs.jctc.8b01176
      * Hamiltonian:
        H0-scaling (s, p, d)           1.850000    2.230000    2.230000
        zeta-weighting                 0.500000
      * Dispersion:
        s8                             2.700000
        a1                             0.520000
        a2                             5.000000
        s9                             5.000000
      * Repulsion:
        kExp                           1.500000    1.000000
        rExp                           1.000000
      * Coulomb:
        alpha                          2.000000
        third order                    shell-resolved
        anisotropic                    true
        a3                             3.000000
        a5                             4.000000
        cn-shift                       1.200000
        cn-exp                         4.000000
        max-rad                        5.000000


          ...................................................
          :                      SETUP                      :
          :.................................................:
          :  # basis functions                  27          :
          :  # atomic orbitals                  27          :
          :  # shells                           17          :
          :  # electrons                        30          :
          :  max. iterations                   250          :
          :  Hamiltonian                  GFN2-xTB          :
          :  restarted?                      false          :
          :  GBSA solvation                  false          :
          :  PC potential                    false          :
          :  electronic temp.          300.0000000     K    :
          :  accuracy                    1.0000000          :
          :  -> integral cutoff          0.2500000E+02      :
          :  -> integral neglect         0.1000000E-07      :
          :  -> SCF convergence          0.1000000E-05 Eh   :
          :  -> wf. convergence          0.1000000E-03 e    :
          :  Broyden damping             0.4000000          :
          :  net charge                          0          :
          :  unpaired electrons                  0          :
          ...................................................

 iter      E             dE          RMSdq      gap      omega  full diag
   1    -17.1075293 -0.171075E+02  0.417E+00    4.88       0.0  T
   2    -17.1659383 -0.584090E-01  0.243E+00    4.75       1.0  T
   3    -17.1692086 -0.327029E-02  0.135E+00    4.97       1.0  T
   4    -17.1697214 -0.512864E-03  0.170E-01    4.88       1.0  T
   5    -17.1698878 -0.166318E-03  0.940E-02    4.96       1.0  T
   6    -17.1699120 -0.242104E-04  0.425E-02    4.94       1.0  T
   7    -17.1699126 -0.589022E-06  0.979E-03    4.94       2.9  T
   8    -17.1699129 -0.383321E-06  0.353E-03    4.94       8.2  T
   9    -17.1699130 -0.583297E-07  0.137E-03    4.94      21.1  T
  10    -17.1699130 -0.381149E-08  0.222E-04    4.94     130.0  T
  11    -17.1699130 -0.168740E-09  0.986E-05    4.94     292.8  T

   *** convergence criteria satisfied after 11 iterations ***

         #    Occupation            Energy/Eh            Energy/eV
      -------------------------------------------------------------
         1        2.0000           -0.6897630             -18.7694
       ...           ...                  ...                  ...
         9        2.0000           -0.5041921             -13.7198
        10        2.0000           -0.5002411             -13.6123
        11        2.0000           -0.4908685             -13.3572
        12        2.0000           -0.4894395             -13.3183
        13        2.0000           -0.4824377             -13.1278
        14        2.0000           -0.3943049             -10.7296
        15        2.0000           -0.3930777             -10.6962 (HOMO)
        16                         -0.2116075              -5.7581 (LUMO)
        17                         -0.0220294              -0.5994
        18                          0.0667515               1.8164
        19                          0.1117872               3.0419
        20                          0.1422988               3.8721
       ...                                ...                  ...
        27                          0.5939359              16.1618
      -------------------------------------------------------------
                  HL-Gap            0.1814702 Eh            4.9381 eV
             Fermi-level           -0.3023426 Eh           -8.2272 eV

 SCC (total)                   0 d,  0 h,  0 min,  0.033 sec
 SCC setup                      ...        0 min,  0.000 sec (  0.696%)
 Dispersion                     ...        0 min,  0.000 sec (  0.267%)
 classical contributions        ...        0 min,  0.000 sec (  0.111%)
 integral evaluation            ...        0 min,  0.001 sec (  3.455%)
 iterations                     ...        0 min,  0.029 sec ( 87.190%)
 molecular gradient             ...        0 min,  0.003 sec (  7.866%)
 printout                       ...        0 min,  0.000 sec (  0.351%)

         :::::::::::::::::::::::::::::::::::::::::::::::::::::
         ::                     SUMMARY                     ::
         :::::::::::::::::::::::::::::::::::::::::::::::::::::
         :: total energy             -16.980088523185 Eh    ::
         :: gradient norm              0.028126703134 Eh/a0 ::
         :: HOMO-LUMO gap              4.938056124271 eV    ::
         ::.................................................::
         :: SCC energy               -17.169906793895 Eh    ::
         :: -> isotropic ES            0.034941115370 Eh    ::
         :: -> anisotropic ES          0.003986915627 Eh    ::
         :: -> anisotropic XC          0.006394324435 Eh    ::
         :: -> dispersion             -0.005868494765 Eh    ::
         :: repulsion energy           0.189818270710 Eh    ::
         :: add. restraining           0.000000000000 Eh    ::
         :: total charge              -0.000000000000 e     ::
         :::::::::::::::::::::::::::::::::::::::::::::::::::::

      ----------------------------------------------------------- 
     |                   =====================                   |
     |                        A N C O P T                        |
     |                   =====================                   |
     |               Approximate Normal Coordinate               |
     |                Rational Function Optimizer                |
      ----------------------------------------------------------- 
      ----------------------------------------------------------- 
     |                   =====================                   |
     |                        A N C O P T                        |
     |                   =====================                   |
     |               Approximate Normal Coordinate               |
     |                Rational Function Optimizer                |
      ----------------------------------------------------------- 

          ...................................................
          :                      SETUP                      :
          :.................................................:
          :   optimization level         verytight          :
          :   max. optcycles                   240          :
          :   ANC micro-cycles                  20          :
          :   degrees of freedom                30          :
          :.................................................:
          :   RF solver                   davidson          :
          :   write xtbopt.log                true          :
          :   linear?                        false          :
          :   energy convergence         0.1000000E-06 Eh   :
          :   grad. convergence          0.2000000E-03 Eh/α :
          :   maxmium RF displ.          1.0000000          :
          :   Hlow (freq-cutoff)         0.1000000E-01      :
          :   Hmax (freq-cutoff)         5.0000000          :
          :   S6 in model hess.         20.0000000          :
          ...................................................

generating ANC from exact Hessian ...
Using Lindh-Hessian (1995)
 Shifting diagonal of input Hessian by   7.442427364955338E-004
 Lowest  eigenvalues of input Hessian
    0.000000    0.000000    0.000000    0.000000    0.000000    0.000000
    0.010000    0.010948    0.013882    0.020543    0.023934    0.024738
    0.062972    0.070791    0.072061    0.085565    0.087921    0.117237
 Highest eigenvalues
    1.109931    1.116755    1.173541    1.537976    1.776886    2.313182
 

........................................................................
.............................. CYCLE    1 ..............................
........................................................................

 iter      E             dE          RMSdq      gap      omega  full diag
   1    -17.1699130 -0.171699E+02  0.127E-05    4.94       0.0  T
   2    -17.1699130 -0.635936E-12  0.542E-06    4.94    5321.5  T
   3    -17.1699130 -0.103029E-12  0.304E-06    4.94    9493.7  T
     SCC iter.                  ...        0 min,  0.001 sec
     gradient                   ...        0 min,  0.003 sec
 * total energy  :   -16.9800885 Eh     change       -0.6171774E-10 Eh
   gradient norm :     0.0281281 Eh/α   predicted     0.0000000E+00 (-100.00%)
   displ. norm   :     0.1132246 α      lambda       -0.1467473E-02
   maximum displ.:     0.0795639 α      in ANC's #7, #4, #20, ...

........................................................................
.............................. CYCLE    2 ..............................
........................................................................

 iter      E             dE          RMSdq      gap      omega  full diag
   1    -17.1805007 -0.171805E+02  0.121E-01    5.08       0.0  T
   2    -17.1805215 -0.207705E-04  0.765E-02    5.07       1.0  T
   3    -17.1805221 -0.598702E-06  0.324E-02    5.07       1.0  T
   4    -17.1805238 -0.171577E-05  0.482E-03    5.07       6.0  T
   5    -17.1805239 -0.699985E-07  0.212E-03    5.07      13.6  T
   6    -17.1805239 -0.804086E-08  0.866E-04    5.07      33.4  T
   7    -17.1805239 -0.537874E-09  0.369E-04    5.07      78.2  T
     SCC iter.                  ...        0 min,  0.001 sec
     gradient                   ...        0 min,  0.002 sec
 * total energy  :   -16.9809371 Eh     change       -0.8485392E-03 Eh
   gradient norm :     0.0069278 Eh/α   predicted    -0.7431429E-03 ( -12.42%)
   displ. norm   :     0.0371535 α      lambda       -0.8957667E-04
   maximum displ.:     0.0211877 α      in ANC's #4, #1, #6, ...

........................................................................
.............................. CYCLE    3 ..............................
........................................................................

 iter      E             dE          RMSdq      gap      omega  full diag
   1    -17.1827590 -0.171828E+02  0.373E-02    5.10       0.0  T
   2    -17.1827625 -0.350459E-05  0.226E-02    5.11       1.3  T
   3    -17.1827627 -0.248208E-06  0.116E-02    5.11       2.5  T
   4    -17.1827628 -0.572609E-07  0.131E-03    5.11      22.0  T
   5    -17.1827628 -0.552549E-08  0.610E-04    5.11      47.3  T
   6    -17.1827628 -0.365439E-09  0.212E-04    5.11     136.4  T
     SCC iter.                  ...        0 min,  0.001 sec
     gradient                   ...        0 min,  0.002 sec
 * total energy  :   -16.9809772 Eh     change       -0.4012439E-04 Eh
   gradient norm :     0.0029277 Eh/α   predicted    -0.4484819E-04 (  11.77%)
   displ. norm   :     0.0320941 α      lambda       -0.3803027E-04
   maximum displ.:     0.0174649 α      in ANC's #1, #3, #4, ...

........................................................................
.............................. CYCLE    4 ..............................
........................................................................

 iter      E             dE          RMSdq      gap      omega  full diag
   1    -17.1833596 -0.171834E+02  0.403E-02    5.12       0.0  T
   2    -17.1833607 -0.110374E-05  0.240E-02    5.12       1.2  T
   3    -17.1833607  0.180359E-07  0.794E-03    5.12       3.6  T
   4    -17.1833608 -0.124935E-06  0.866E-04    5.12      33.4  T
   5    -17.1833608 -0.996923E-09  0.467E-04    5.12      61.8  T
     SCC iter.                  ...        0 min,  0.001 sec
     gradient                   ...        0 min,  0.002 sec
 * total energy  :   -16.9809772 Eh     change        0.2766841E-07 Eh
   gradient norm :     0.0022724 Eh/α   predicted    -0.1903658E-04 (*******%)
   displ. norm   :     0.0175583 α      lambda       -0.2271833E-04
   maximum displ.:     0.0110269 α      in ANC's #1, #3, #5, ...

........................................................................
.............................. CYCLE    5 ..............................
........................................................................

 iter      E             dE          RMSdq      gap      omega  full diag
   1    -17.1825892 -0.171826E+02  0.207E-02    5.11       0.0  T
   2    -17.1825894 -0.254867E-06  0.125E-02    5.11       2.3  T
   3    -17.1825894  0.125353E-07  0.382E-03    5.11       7.5  T
   4    -17.1825894 -0.382171E-07  0.462E-04    5.11      62.4  T
   5    -17.1825894 -0.528942E-09  0.246E-04    5.11     117.5  T
     SCC iter.                  ...        0 min,  0.001 sec
     gradient                   ...        0 min,  0.002 sec
 * total energy  :   -16.9809890 Eh     change       -0.1188867E-04 Eh
   gradient norm :     0.0005223 Eh/α   predicted    -0.1136241E-04 (  -4.43%)
   displ. norm   :     0.0088818 α      lambda       -0.6758603E-06
   maximum displ.:     0.0069691 α      in ANC's #2, #1, #3, ...

........................................................................
.............................. CYCLE    6 ..............................
........................................................................

 iter      E             dE          RMSdq      gap      omega  full diag
   1    -17.1824649 -0.171825E+02  0.377E-03    5.11       0.0  T
   2    -17.1824649 -0.344669E-08  0.221E-03    5.11      13.1  T
   3    -17.1824649 -0.183366E-09  0.344E-04    5.11      83.8  T
   4    -17.1824649 -0.354213E-09  0.117E-04    5.11     247.2  T
     SCC iter.                  ...        0 min,  0.001 sec
     gradient                   ...        0 min,  0.003 sec
 * total energy  :   -16.9809898 Eh     change       -0.7885265E-06 Eh
   gradient norm :     0.0001769 Eh/α   predicted    -0.3378513E-06 ( -57.15%)
   displ. norm   :     0.0230624 α      lambda       -0.1113292E-05
   maximum displ.:     0.0173649 α      in ANC's #2, #1, #3, ...

........................................................................
.............................. CYCLE    7 ..............................
........................................................................

 iter      E             dE          RMSdq      gap      omega  full diag
   1    -17.1823774 -0.171824E+02  0.765E-03    5.11       0.0  T
   2    -17.1823774 -0.743296E-08  0.451E-03    5.11       6.4  T
   3    -17.1823774 -0.112842E-08  0.495E-04    5.11      58.3  T
   4    -17.1823774 -0.760714E-09  0.216E-04    5.11     133.5  T
     SCC iter.                  ...        0 min,  0.001 sec
     gradient                   ...        0 min,  0.002 sec
 * total energy  :   -16.9809914 Eh     change       -0.1540125E-05 Eh
   gradient norm :     0.0006288 Eh/α   predicted    -0.5585364E-06 ( -63.73%)
   displ. norm   :     0.3469568 α      lambda       -0.1563029E-04
   maximum displ.:     0.2643220 α      in ANC's #2, #1, #3, ...

........................................................................
.............................. CYCLE    8 ..............................
........................................................................

 iter      E             dE          RMSdq      gap      omega  full diag
   1    -17.1793730 -0.171794E+02  0.116E-01    5.12       0.0  T
   2    -17.1793753 -0.235343E-05  0.682E-02    5.11       1.0  T
   3    -17.1793757 -0.320518E-06  0.729E-03    5.11       4.0  T
   4    -17.1793757 -0.944997E-07  0.300E-03    5.11       9.6  T
   5    -17.1793758 -0.668780E-08  0.929E-04    5.11      31.1  T
   6    -17.1793758 -0.100772E-08  0.316E-04    5.11      91.4  T
     SCC iter.                  ...        0 min,  0.001 sec
     gradient                   ...        0 min,  0.002 sec
 * total energy  :   -16.9809636 Eh     change        0.2781989E-04 Eh
   gradient norm :     0.0101071 Eh/α   predicted    -0.8234711E-05 (-129.60%)
   displ. norm   :     0.1702723 α      lambda       -0.9803868E-04
   maximum displ.:     0.1298836 α      in ANC's #2, #1, #3, ...

........................................................................
.............................. CYCLE    9 ..............................
........................................................................

 iter      E             dE          RMSdq      gap      omega  full diag
   1    -17.1815896 -0.171816E+02  0.607E-02    5.12       0.0  T
   2    -17.1815906 -0.952238E-06  0.355E-02    5.12       1.0  T
   3    -17.1815907 -0.854118E-07  0.468E-03    5.12       6.2  T
   4    -17.1815907 -0.344526E-07  0.159E-03    5.12      18.2  T
   5    -17.1815907 -0.174570E-08  0.579E-04    5.12      49.8  T
   6    -17.1815907 -0.346997E-09  0.165E-04    5.12     175.2  T
     SCC iter.                  ...        0 min,  0.001 sec
     gradient                   ...        0 min,  0.002 sec
 * total energy  :   -16.9810041 Eh     change       -0.4051075E-04 Eh
   gradient norm :     0.0044619 Eh/α   predicted    -0.5044029E-04 (  24.51%)
   displ. norm   :     0.0344696 α      lambda       -0.9111107E-05
   maximum displ.:     0.0270617 α      in ANC's #2, #1, #3, ...

........................................................................
.............................. CYCLE   10 ..............................
........................................................................

 iter      E             dE          RMSdq      gap      omega  full diag
   1    -17.1816782 -0.171817E+02  0.106E-02    5.12       0.0  T
   2    -17.1816783 -0.130325E-07  0.625E-03    5.12       4.6  T
   3    -17.1816783 -0.188454E-08  0.588E-04    5.12      49.1  T
   4    -17.1816783 -0.101399E-08  0.253E-04    5.12     114.0  T
     SCC iter.                  ...        0 min,  0.001 sec
     gradient                   ...        0 min,  0.003 sec
 * total energy  :   -16.9810134 Eh     change       -0.9362613E-05 Eh
   gradient norm :     0.0046333 Eh/α   predicted    -0.4560443E-05 ( -51.29%)
   displ. norm   :     0.0446515 α      lambda       -0.1061284E-04
   maximum displ.:     0.0351805 α      in ANC's #2, #1, #3, ...

........................................................................
.............................. CYCLE   11 ..............................
........................................................................

 iter      E             dE          RMSdq      gap      omega  full diag
   1    -17.1815994 -0.171816E+02  0.136E-02    5.12       0.0  T
   2    -17.1815994 -0.136243E-07  0.809E-03    5.12       3.6  T
   3    -17.1815994 -0.375867E-08  0.617E-04    5.12      46.8  T
   4    -17.1815994 -0.736534E-09  0.294E-04    5.12      98.1  T
     SCC iter.                  ...        0 min,  0.001 sec
     gradient                   ...        0 min,  0.002 sec
 * total energy  :   -16.9810246 Eh     change       -0.1120209E-04 Eh
   gradient norm :     0.0050370 Eh/α   predicted    -0.5316705E-05 ( -52.54%)
   displ. norm   :     0.0502349 α      lambda       -0.1300026E-04
   maximum displ.:     0.0396882 α      in ANC's #2, #1, #3, ...

........................................................................
.............................. CYCLE   12 ..............................
........................................................................

 iter      E             dE          RMSdq      gap      omega  full diag
   1    -17.1814438 -0.171814E+02  0.154E-02    5.11       0.0  T
   2    -17.1814438 -0.190488E-07  0.915E-03    5.11       3.2  T
   3    -17.1814438 -0.496317E-08  0.713E-04    5.11      40.5  T
   4    -17.1814438 -0.952841E-09  0.337E-04    5.11      85.7  T
     SCC iter.                  ...        0 min,  0.001 sec
     gradient                   ...        0 min,  0.003 sec
 * total energy  :   -16.9810382 Eh     change       -0.1352380E-04 Eh
   gradient norm :     0.0055737 Eh/α   predicted    -0.6514905E-05 ( -51.83%)
   displ. norm   :     0.0492033 α      lambda       -0.1505726E-04
   maximum displ.:     0.0390992 α      in ANC's #2, #1, #3, ...

........................................................................
.............................. CYCLE   13 ..............................
........................................................................

 iter      E             dE          RMSdq      gap      omega  full diag
   1    -17.1812905 -0.171813E+02  0.151E-02    5.11       0.0  T
   2    -17.1812905 -0.180358E-07  0.894E-03    5.11       3.2  T
   3    -17.1812905 -0.462447E-08  0.701E-04    5.11      41.2  T
   4    -17.1812905 -0.986386E-09  0.332E-04    5.11      87.0  T
     SCC iter.                  ...        0 min,  0.001 sec
     gradient                   ...        0 min,  0.003 sec
 * total energy  :   -16.9810536 Eh     change       -0.1546651E-04 Eh
   gradient norm :     0.0060702 Eh/α   predicted    -0.7547760E-05 ( -51.20%)
   displ. norm   :     0.0442222 α      lambda       -0.1669575E-04
   maximum displ.:     0.0354423 α      in ANC's #2, #1, #3, ...

........................................................................
.............................. CYCLE   14 ..............................
........................................................................

 iter      E             dE          RMSdq      gap      omega  full diag
   1    -17.1811911 -0.171812E+02  0.134E-02    5.11       0.0  T
   2    -17.1811911 -0.132945E-07  0.796E-03    5.11       3.6  T
   3    -17.1811911 -0.358819E-08  0.611E-04    5.11      47.2  T
   4    -17.1811911 -0.747843E-09  0.290E-04    5.11      99.4  T
     SCC iter.                  ...        0 min,  0.001 sec
     gradient                   ...        0 min,  0.003 sec
 * total energy  :   -16.9810707 Eh     change       -0.1704961E-04 Eh
   gradient norm :     0.0064117 Eh/α   predicted    -0.8365793E-05 ( -50.93%)
   displ. norm   :     0.0404215 α      lambda       -0.1808177E-04
   maximum displ.:     0.0326556 α      in ANC's #2, #1, #3, ...

........................................................................
.............................. CYCLE   15 ..............................
........................................................................

 iter      E             dE          RMSdq      gap      omega  full diag
   1    -17.1811298 -0.171811E+02  0.122E-02    5.11       0.0  T
   2    -17.1811298 -0.106029E-07  0.723E-03    5.11       4.0  T
   3    -17.1811298 -0.294153E-08  0.545E-04    5.11      52.9  T
   4    -17.1811298 -0.563578E-09  0.258E-04    5.11     111.7  T
     SCC iter.                  ...        0 min,  0.001 sec
     gradient                   ...        0 min,  0.003 sec
 * total energy  :   -16.9810890 Eh     change       -0.1837307E-04 Eh
   gradient norm :     0.0066376 Eh/α   predicted    -0.9053944E-05 ( -50.72%)
   displ. norm   :     0.0381027 α      lambda       -0.1921955E-04
   maximum displ.:     0.0309792 α      in ANC's #2, #1, #3, ...

........................................................................
.............................. CYCLE   16 ..............................
........................................................................

 iter      E             dE          RMSdq      gap      omega  full diag
   1    -17.1810861 -0.171811E+02  0.114E-02    5.11       0.0  T
   2    -17.1810861 -0.929783E-08  0.679E-03    5.11       4.3  T
   3    -17.1810861 -0.257547E-08  0.509E-04    5.11      56.7  T
   4    -17.1810861 -0.485873E-09  0.241E-04    5.11     119.7  T
     SCC iter.                  ...        0 min,  0.001 sec
     gradient                   ...        0 min,  0.002 sec
 * total energy  :   -16.9811085 Eh     change       -0.1945961E-04 Eh
   gradient norm :     0.0068001 Eh/α   predicted    -0.9622938E-05 ( -50.55%)
   displ. norm   :     0.0359660 α      lambda       -0.2014729E-04
   maximum displ.:     0.0294142 α      in ANC's #2, #1, #3, ...

........................................................................
.............................. CYCLE   17 ..............................
........................................................................

 iter      E             dE          RMSdq      gap      omega  full diag
   1    -17.1810596 -0.171811E+02  0.108E-02    5.11       0.0  T
   2    -17.1810596 -0.829337E-08  0.639E-03    5.11       4.5  T
   3    -17.1810596 -0.223877E-08  0.480E-04    5.11      60.1  T
   4    -17.1810596 -0.453859E-09  0.229E-04    5.11     126.3  T
     SCC iter.                  ...        0 min,  0.001 sec
     gradient                   ...        0 min,  0.003 sec
 * total energy  :   -16.9811289 Eh     change       -0.2034704E-04 Eh
   gradient norm :     0.0069070 Eh/α   predicted    -0.1008775E-04 ( -50.42%)
   displ. norm   :     0.0345148 α      lambda       -0.2090431E-04
   maximum displ.:     0.0283586 α      in ANC's #2, #1, #3, ...

........................................................................
.............................. CYCLE   18 ..............................
........................................................................

 iter      E             dE          RMSdq      gap      omega  full diag
   1    -17.1810405 -0.171810E+02  0.103E-02    5.11       0.0  T
   2    -17.1810405 -0.767680E-08  0.613E-03    5.11       4.7  T
   3    -17.1810405 -0.201683E-08  0.463E-04    5.11      62.4  T
   4    -17.1810405 -0.447088E-09  0.221E-04    5.11     130.6  T
     SCC iter.                  ...        0 min,  0.001 sec
     gradient                   ...        0 min,  0.002 sec
 * total energy  :   -16.9811499 Eh     change       -0.2106475E-04 Eh
   gradient norm :     0.0069842 Eh/α   predicted    -0.1046525E-04 ( -50.32%)
   displ. norm   :     0.0327841 α      lambda       -0.2151668E-04
   maximum displ.:     0.0270648 α      in ANC's #2, #1, #3, ...

........................................................................
.............................. CYCLE   19 ..............................
........................................................................

 iter      E             dE          RMSdq      gap      omega  full diag
   1    -17.1810360 -0.171810E+02  0.978E-03    5.11       0.0  T
   2    -17.1810360 -0.708226E-08  0.581E-03    5.11       5.0  T
   3    -17.1810360 -0.176260E-08  0.443E-04    5.11      65.2  T
   4    -17.1810360 -0.445475E-09  0.212E-04    5.11     135.9  T
     SCC iter.                  ...        0 min,  0.001 sec
     gradient                   ...        0 min,  0.001 sec
 * total energy  :   -16.9811716 Eh     change       -0.2164266E-04 Eh
   gradient norm :     0.0070209 Eh/α   predicted    -0.1076895E-04 ( -50.24%)
   displ. norm   :     0.0321390 α      lambda       -0.2199820E-04
   maximum displ.:     0.0266036 α      in ANC's #2, #1, #3, ...

........................................................................
.............................. CYCLE   20 ..............................
........................................................................

 iter      E             dE          RMSdq      gap      omega  full diag
   1    -17.1810261 -0.171810E+02  0.959E-03    5.11       0.0  T
   2    -17.1810261 -0.677055E-08  0.570E-03    5.11       5.1  T
   3    -17.1810261 -0.166687E-08  0.437E-04    5.11      66.0  T
   4    -17.1810261 -0.453706E-09  0.209E-04    5.11     137.8  T
     SCC iter.                  ...        0 min,  0.001 sec
     gradient                   ...        0 min,  0.001 sec
 * total energy  :   -16.9811937 Eh     change       -0.2209709E-04 Eh
   gradient norm :     0.0070601 Eh/α   predicted    -0.1101052E-04 ( -50.17%)
   displ. norm   :     0.0296417 α      lambda       -0.2237920E-04
   maximum displ.:     0.0246751 α      in ANC's #2, #1, #3, ...
 * RMSD in coord.:     0.2022746 α      energy gain  -0.1105133E-02 Eh

generating ANC from exact Hessian ...
Using Lindh-Hessian (1995)
 Shifting diagonal of input Hessian by   1.629310989620207E-005
 Lowest  eigenvalues of input Hessian
    0.000000    0.000000    0.000000    0.000000    0.000000    0.000000
    0.010000    0.011029    0.014203    0.021274    0.025703    0.026095
    0.064944    0.073364    0.074404    0.090880    0.094646    0.121609
 Highest eigenvalues
    1.127807    1.137690    1.202147    1.583939    1.850406    2.406861
 

........................................................................
.............................. CYCLE   21 ..............................
........................................................................

 iter      E             dE          RMSdq      gap      omega  full diag
   1    -17.1810509 -0.171811E+02  0.882E-03    5.11       0.0  T
   2    -17.1810509 -0.636152E-08  0.524E-03    5.11       5.5  T
   3    -17.1810509 -0.133494E-08  0.413E-04    5.11      70.0  T
   4    -17.1810509 -0.457796E-09  0.196E-04    5.11     147.0  T
     SCC iter.                  ...        0 min,  0.001 sec
     gradient                   ...        0 min,  0.001 sec
 * total energy  :   -16.9812161 Eh     change       -0.2245536E-04 Eh
   gradient norm :     0.0070271 Eh/α   predicted     0.0000000E+00 (-100.00%)
   displ. norm   :     0.0679401 α      lambda       -0.1077958E-03
   maximum displ.:     0.0589970 α      in ANC's #2, #1, #3, ...

........................................................................
.............................. CYCLE   22 ..............................
........................................................................

 iter      E             dE          RMSdq      gap      omega  full diag
   1    -17.1825190 -0.171825E+02  0.272E-02    5.10       0.0  T
   2    -17.1825193 -0.339555E-06  0.157E-02    5.10       1.8  T
   3    -17.1825193 -0.170497E-07  0.292E-03    5.11       9.9  T
   4    -17.1825193 -0.118178E-07  0.869E-04    5.10      33.2  T
   5    -17.1825193 -0.764931E-09  0.433E-04    5.10      66.7  T
     SCC iter.                  ...        0 min,  0.001 sec
     gradient                   ...        0 min,  0.001 sec
 * total energy  :   -16.9813070 Eh     change       -0.9086051E-04 Eh
   gradient norm :     0.0037720 Eh/α   predicted    -0.5414700E-04 ( -40.41%)
   displ. norm   :     0.1865873 α      lambda       -0.1924389E-03
   maximum displ.:     0.1538523 α      in ANC's #2, #1, #3, ...

........................................................................
.............................. CYCLE   23 ..............................
........................................................................

 iter      E             dE          RMSdq      gap      omega  full diag
   1    -17.1836125 -0.171836E+02  0.629E-02    5.09       0.0  T
   2    -17.1836133 -0.730137E-06  0.370E-02    5.09       1.0  T
   3    -17.1836134 -0.853419E-07  0.444E-03    5.09       6.5  T
   4    -17.1836134 -0.556578E-07  0.190E-03    5.09      15.2  T
   5    -17.1836134 -0.214560E-08  0.494E-04    5.09      58.4  T
   6    -17.1836134 -0.185288E-09  0.119E-04    5.09     241.7  T
     SCC iter.                  ...        0 min,  0.001 sec
     gradient                   ...        0 min,  0.001 sec
 * total energy  :   -16.9814734 Eh     change       -0.1663786E-03 Eh
   gradient norm :     0.0029698 Eh/α   predicted    -0.9957182E-04 ( -40.15%)
   displ. norm   :     0.3419627 α      lambda       -0.3037508E-03
   maximum displ.:     0.2768075 α      in ANC's #2, #1, #3, ...

........................................................................
.............................. CYCLE   24 ..............................
........................................................................

 iter      E             dE          RMSdq      gap      omega  full diag
   1    -17.1818773 -0.171819E+02  0.115E-01    5.05       0.0  T
   2    -17.1818804 -0.312212E-05  0.676E-02    5.05       1.0  T
   3    -17.1818807 -0.293238E-06  0.100E-02    5.05       2.9  T
   4    -17.1818810 -0.287068E-06  0.369E-03    5.05       7.8  T
   5    -17.1818810 -0.830301E-08  0.779E-04    5.05      37.1  T
   6    -17.1818810 -0.768864E-09  0.281E-04    5.05     102.9  T
     SCC iter.                  ...        0 min,  0.001 sec
     gradient                   ...        0 min,  0.001 sec
 * total energy  :   -16.9816765 Eh     change       -0.2031326E-03 Eh
   gradient norm :     0.0124565 Eh/α   predicted    -0.1696224E-03 ( -16.50%)
   displ. norm   :     0.1679758 α      lambda       -0.1885986E-03
   maximum displ.:     0.1318432 α      in ANC's #2, #1, #3, ...

........................................................................
.............................. CYCLE   25 ..............................
........................................................................

 iter      E             dE          RMSdq      gap      omega  full diag
   1    -17.1806801 -0.171807E+02  0.631E-02    5.04       0.0  T
   2    -17.1806805 -0.368365E-06  0.377E-02    5.04       1.0  T
   3    -17.1806805 -0.521922E-07  0.316E-03    5.04       9.1  T
   4    -17.1806806 -0.355970E-07  0.136E-03    5.04      21.2  T
   5    -17.1806806 -0.164892E-08  0.312E-04    5.04      92.7  T
   6    -17.1806806 -0.744045E-10  0.110E-04    5.04     262.3  T
     SCC iter.                  ...        0 min,  0.001 sec
     gradient                   ...        0 min,  0.001 sec
 * total energy  :   -16.9818158 Eh     change       -0.1393361E-03 Eh
   gradient norm :     0.0140882 Eh/α   predicted    -0.9695860E-04 ( -30.41%)
   displ. norm   :     0.2578344 α      lambda       -0.5589703E-03
   maximum displ.:     0.2083913 α      in ANC's #2, #1, #17, ...

........................................................................
.............................. CYCLE   26 ..............................
........................................................................

 iter      E             dE          RMSdq      gap      omega  full diag
   1    -17.1802288 -0.171802E+02  0.951E-02    5.05       0.0  T
   2    -17.1802306 -0.177531E-05  0.564E-02    5.05       1.0  T
   3    -17.1802307 -0.117837E-06  0.651E-03    5.05       4.4  T
   4    -17.1802308 -0.111398E-06  0.232E-03    5.05      12.4  T
   5    -17.1802308 -0.460475E-08  0.843E-04    5.05      34.2  T
   6    -17.1802308 -0.148460E-08  0.265E-04    5.05     109.1  T
     SCC iter.                  ...        0 min,  0.001 sec
     gradient                   ...        0 min,  0.001 sec
 * total energy  :   -16.9822031 Eh     change       -0.3872325E-03 Eh
   gradient norm :     0.0089650 Eh/α   predicted    -0.2980675E-03 ( -23.03%)
   displ. norm   :     0.3611057 α      lambda       -0.4504920E-03
   maximum displ.:     0.3018325 α      in ANC's #2, #1, #3, ...

........................................................................
.............................. CYCLE   27 ..............................
........................................................................

 iter      E             dE          RMSdq      gap      omega  full diag
   1    -17.1769691 -0.171770E+02  0.126E-01    5.07       0.0  T
   2    -17.1769717 -0.265088E-05  0.747E-02    5.07       1.0  T
   3    -17.1769720 -0.296230E-06  0.830E-03    5.07       3.5  T
   4    -17.1769722 -0.168641E-06  0.320E-03    5.07       9.0  T
   5    -17.1769722 -0.130176E-07  0.132E-03    5.07      21.9  T
   6    -17.1769722 -0.270514E-08  0.463E-04    5.07      62.3  T
   7    -17.1769722 -0.274781E-09  0.926E-05    5.07     311.7  T
     SCC iter.                  ...        0 min,  0.001 sec
     gradient                   ...        0 min,  0.001 sec
 * total energy  :   -16.9823642 Eh     change       -0.1611392E-03 Eh
   gradient norm :     0.0159169 Eh/α   predicted    -0.2546146E-03 (  58.01%)
   displ. norm   :     0.1175816 α      lambda       -0.9281475E-03
   maximum displ.:     0.0588694 α      in ANC's #2, #17, #21, ...

........................................................................
.............................. CYCLE   28 ..............................
........................................................................

 iter      E             dE          RMSdq      gap      omega  full diag
   1    -17.1843427 -0.171843E+02  0.132E-01    5.12       0.0  T
   2    -17.1843640 -0.213550E-04  0.721E-02    5.11       1.0  T
   3    -17.1843652 -0.116400E-05  0.282E-02    5.12       1.0  T
   4    -17.1843659 -0.732087E-06  0.637E-03    5.11       4.5  T
   5    -17.1843660 -0.331099E-07  0.299E-03    5.11       9.6  T
   6    -17.1843660 -0.615150E-08  0.567E-04    5.11      50.9  T
   7    -17.1843660 -0.985565E-09  0.232E-04    5.11     124.5  T
     SCC iter.                  ...        0 min,  0.001 sec
     gradient                   ...        0 min,  0.001 sec
 * total energy  :   -16.9824832 Eh     change       -0.1190539E-03 Eh
   gradient norm :     0.0173813 Eh/α   predicted    -0.4704916E-03 ( 295.19%)
   displ. norm   :     0.1009450 α      lambda       -0.4697403E-03
   maximum displ.:     0.0772193 α      in ANC's #2, #1, #6, ...

........................................................................
.............................. CYCLE   29 ..............................
........................................................................

 iter      E             dE          RMSdq      gap      omega  full diag
   1    -17.1819885 -0.171820E+02  0.697E-02    5.11       0.0  T
   2    -17.1819916 -0.303526E-05  0.398E-02    5.11       1.0  T
   3    -17.1819918 -0.253959E-06  0.999E-03    5.11       2.9  T
   4    -17.1819919 -0.790250E-07  0.276E-03    5.11      10.5  T
   5    -17.1819919 -0.332935E-08  0.784E-04    5.11      36.8  T
   6    -17.1819919 -0.100435E-08  0.219E-04    5.11     132.0  T
     SCC iter.                  ...        0 min,  0.001 sec
     gradient                   ...        0 min,  0.001 sec
 * total energy  :   -16.9827617 Eh     change       -0.2784665E-03 Eh
   gradient norm :     0.0113261 Eh/α   predicted    -0.2372635E-03 ( -14.80%)
   displ. norm   :     0.0741241 α      lambda       -0.1403542E-03
   maximum displ.:     0.0610418 α      in ANC's #2, #1, #17, ...

........................................................................
.............................. CYCLE   30 ..............................
........................................................................

 iter      E             dE          RMSdq      gap      omega  full diag
   1    -17.1820213 -0.171820E+02  0.315E-02    5.11       0.0  T
   2    -17.1820215 -0.273165E-06  0.186E-02    5.11       1.6  T
   3    -17.1820216 -0.272103E-07  0.297E-03    5.11       9.7  T
   4    -17.1820216 -0.290082E-07  0.124E-03    5.11      23.2  T
   5    -17.1820216 -0.808235E-09  0.295E-04    5.11      97.8  T
   6    -17.1820216 -0.257280E-09  0.107E-04    5.11     268.9  T
     SCC iter.                  ...        0 min,  0.001 sec
     gradient                   ...        0 min,  0.001 sec
 * total energy  :   -16.9828772 Eh     change       -0.1155237E-03 Eh
   gradient norm :     0.0088398 Eh/α   predicted    -0.7056401E-04 ( -38.92%)
   displ. norm   :     0.2072344 α      lambda       -0.3095243E-03
   maximum displ.:     0.1719683 α      in ANC's #2, #17, #1, ...

........................................................................
.............................. CYCLE   31 ..............................
........................................................................

 iter      E             dE          RMSdq      gap      omega  full diag
   1    -17.1826972 -0.171827E+02  0.759E-02    5.11       0.0  T
   2    -17.1826981 -0.862730E-06  0.453E-02    5.10       1.0  T
   3    -17.1826982 -0.129708E-06  0.505E-03    5.11       5.7  T
   4    -17.1826983 -0.840872E-07  0.239E-03    5.10      12.1  T
   5    -17.1826983 -0.540651E-08  0.634E-04    5.10      45.5  T
   6    -17.1826983 -0.741998E-09  0.238E-04    5.10     121.4  T
     SCC iter.                  ...        0 min,  0.001 sec
     gradient                   ...        0 min,  0.001 sec
 * total energy  :   -16.9830773 Eh     change       -0.2000528E-03 Eh
   gradient norm :     0.0072481 Eh/α   predicted    -0.1614087E-03 ( -19.32%)
   displ. norm   :     0.1154113 α      lambda       -0.1493803E-03
   maximum displ.:     0.0922397 α      in ANC's #2, #17, #21, ...

........................................................................
.............................. CYCLE   32 ..............................
........................................................................

 iter      E             dE          RMSdq      gap      omega  full diag
   1    -17.1839150 -0.171839E+02  0.421E-02    5.11       0.0  T
   2    -17.1839155 -0.473387E-06  0.249E-02    5.11       1.2  T
   3    -17.1839155 -0.152196E-07  0.346E-03    5.11       8.3  T
   4    -17.1839155 -0.358096E-07  0.104E-03    5.11      27.8  T
   5    -17.1839155 -0.110242E-08  0.506E-04    5.11      57.0  T
   6    -17.1839155 -0.244789E-09  0.123E-04    5.11     234.7  T
     SCC iter.                  ...        0 min,  0.001 sec
     gradient                   ...        0 min,  0.001 sec
 * total energy  :   -16.9831913 Eh     change       -0.1140410E-03 Eh
   gradient norm :     0.0058091 Eh/α   predicted    -0.7568445E-04 ( -33.63%)
   displ. norm   :     0.3566172 α      lambda       -0.2454815E-03
   maximum displ.:     0.2939496 α      in ANC's #2, #17, #1, ...

........................................................................
.............................. CYCLE   33 ..............................
........................................................................

 iter      E             dE          RMSdq      gap      omega  full diag
   1    -17.1809036 -0.171809E+02  0.119E-01    5.13       0.0  T
   2    -17.1809056 -0.200684E-05  0.707E-02    5.12       1.0  T
   3    -17.1809059 -0.277629E-06  0.604E-03    5.12       4.8  T
   4    -17.1809059 -0.495938E-07  0.240E-03    5.12      12.0  T
   5    -17.1809059 -0.390514E-08  0.743E-04    5.12      38.9  T
   6    -17.1809059 -0.251720E-09  0.213E-04    5.12     135.3  T
     SCC iter.                  ...        0 min,  0.001 sec
     gradient                   ...        0 min,  0.001 sec
 * total energy  :   -16.9832157 Eh     change       -0.2433408E-04 Eh
   gradient norm :     0.0115067 Eh/α   predicted    -0.1383560E-03 ( 468.57%)
   displ. norm   :     0.0515532 α      lambda       -0.4597976E-03
   maximum displ.:     0.0279814 α      in ANC's #2, #1, #3, ...

........................................................................
.............................. CYCLE   34 ..............................
........................................................................

 iter      E             dE          RMSdq      gap      omega  full diag
   1    -17.1857567 -0.171858E+02  0.746E-02    5.14       0.0  T
   2    -17.1857625 -0.570997E-05  0.409E-02    5.13       1.0  T
   3    -17.1857628 -0.325143E-06  0.132E-02    5.14       2.2  T
   4    -17.1857629 -0.943131E-07  0.294E-03    5.14       9.8  T
   5    -17.1857629 -0.429830E-08  0.134E-03    5.14      21.5  T
   6    -17.1857629 -0.234005E-08  0.273E-04    5.14     105.7  T
   7    -17.1857629 -0.157122E-09  0.956E-05    5.14     301.9  T
     SCC iter.                  ...        0 min,  0.001 sec
     gradient                   ...        0 min,  0.001 sec
 * total energy  :   -16.9833841 Eh     change       -0.1684730E-03 Eh
   gradient norm :     0.0038818 Eh/α   predicted    -0.2305115E-03 (  36.82%)
   displ. norm   :     0.1026521 α      lambda       -0.7276748E-04
   maximum displ.:     0.0776870 α      in ANC's #2, #1, #17, ...

........................................................................
.............................. CYCLE   35 ..............................
........................................................................

 iter      E             dE          RMSdq      gap      omega  full diag
   1    -17.1847140 -0.171847E+02  0.364E-02    5.14       0.0  T
   2    -17.1847144 -0.393633E-06  0.214E-02    5.14       1.3  T
   3    -17.1847144 -0.166328E-07  0.332E-03    5.14       8.7  T
   4    -17.1847144 -0.214194E-07  0.828E-04    5.14      34.9  T
   5    -17.1847144 -0.361961E-09  0.371E-04    5.14      77.7  T
     SCC iter.                  ...        0 min,  0.001 sec
     gradient                   ...        0 min,  0.001 sec
 * total energy  :   -16.9834301 Eh     change       -0.4599778E-04 Eh
   gradient norm :     0.0015523 Eh/α   predicted    -0.3676621E-04 ( -20.07%)
   displ. norm   :     0.1960130 α      lambda       -0.3452471E-04
   maximum displ.:     0.1486947 α      in ANC's #2, #17, #1, ...

........................................................................
.............................. CYCLE   36 ..............................
........................................................................

 iter      E             dE          RMSdq      gap      omega  full diag
   1    -17.1831989 -0.171832E+02  0.619E-02    5.14       0.0  T
   2    -17.1831995 -0.554640E-06  0.369E-02    5.14       1.0  T
   3    -17.1831995 -0.632078E-07  0.315E-03    5.14       9.2  T
   4    -17.1831996 -0.133837E-07  0.115E-03    5.14      25.0  T
   5    -17.1831996 -0.538304E-09  0.313E-04    5.14      92.3  T
   6    -17.1831996 -0.918163E-10  0.990E-05    5.14     291.6  T
     SCC iter.                  ...        0 min,  0.001 sec
     gradient                   ...        0 min,  0.001 sec
 * total energy  :   -16.9834205 Eh     change        0.9590651E-05 Eh
   gradient norm :     0.0055493 Eh/α   predicted    -0.1755844E-04 (-283.08%)
   displ. norm   :     0.0493507 α      lambda       -0.5341982E-04
   maximum displ.:     0.0417128 α      in ANC's #2, #17, #21, ...

........................................................................
.............................. CYCLE   37 ..............................
........................................................................

 iter      E             dE          RMSdq      gap      omega  full diag
   1    -17.1843765 -0.171844E+02  0.231E-02    5.14       0.0  T
   2    -17.1843768 -0.303653E-06  0.132E-02    5.14       2.2  T
   3    -17.1843768 -0.183402E-07  0.307E-03    5.14       9.4  T
   4    -17.1843768 -0.677593E-08  0.715E-04    5.14      40.4  T
   5    -17.1843768 -0.457327E-09  0.320E-04    5.14      90.2  T
     SCC iter.                  ...        0 min,  0.001 sec
     gradient                   ...        0 min,  0.001 sec
 * total energy  :   -16.9834543 Eh     change       -0.3373995E-04 Eh
   gradient norm :     0.0021684 Eh/α   predicted    -0.2677353E-04 ( -20.65%)
   displ. norm   :     0.0157596 α      lambda       -0.1201964E-04
   maximum displ.:     0.0079116 α      in ANC's #17, #1, #21, ...

........................................................................
.............................. CYCLE   38 ..............................
........................................................................

 iter      E             dE          RMSdq      gap      omega  full diag
   1    -17.1848898 -0.171849E+02  0.947E-03    5.14       0.0  T
   2    -17.1848898 -0.707522E-07  0.531E-03    5.14       5.4  T
   3    -17.1848898 -0.430916E-08  0.150E-03    5.14      19.3  T
   4    -17.1848898 -0.121905E-08  0.335E-04    5.14      86.2  T
   5    -17.1848898 -0.583533E-10  0.131E-04    5.14     220.4  T
     SCC iter.                  ...        0 min,  0.001 sec
     gradient                   ...        0 min,  0.001 sec
 * total energy  :   -16.9834615 Eh     change       -0.7262187E-05 Eh
   gradient norm :     0.0007850 Eh/α   predicted    -0.6012049E-05 ( -17.21%)
   displ. norm   :     0.0339132 α      lambda       -0.4761519E-05
   maximum displ.:     0.0159377 α      in ANC's #1, #2, #17, ...

........................................................................
.............................. CYCLE   39 ..............................
........................................................................

 iter      E             dE          RMSdq      gap      omega  full diag
   1    -17.1852614 -0.171853E+02  0.139E-02    5.14       0.0  T
   2    -17.1852615 -0.703544E-07  0.806E-03    5.14       3.6  T
   3    -17.1852615 -0.694182E-08  0.127E-03    5.14      22.7  T
   4    -17.1852615 -0.141953E-08  0.386E-04    5.14      74.7  T
   5    -17.1852615 -0.109583E-09  0.105E-04    5.14     275.1  T
     SCC iter.                  ...        0 min,  0.001 sec
     gradient                   ...        0 min,  0.001 sec
 * total energy  :   -16.9834635 Eh     change       -0.1985612E-05 Eh
   gradient norm :     0.0015106 Eh/α   predicted    -0.2381015E-05 (  19.91%)
   displ. norm   :     0.0401092 α      lambda       -0.4067406E-05
   maximum displ.:     0.0265138 α      in ANC's #2, #17, #1, ...

........................................................................
.............................. CYCLE   40 ..............................
........................................................................

 iter      E             dE          RMSdq      gap      omega  full diag
   1    -17.1850908 -0.171851E+02  0.126E-02    5.14       0.0  T
   2    -17.1850908 -0.181563E-07  0.752E-03    5.14       3.8  T
   3    -17.1850908 -0.181852E-08  0.656E-04    5.14      44.0  T
   4    -17.1850908 -0.135209E-08  0.248E-04    5.14     116.5  T
     SCC iter.                  ...        0 min,  0.001 sec
     gradient                   ...        0 min,  0.001 sec
 * total energy  :   -16.9834663 Eh     change       -0.2767447E-05 Eh
   gradient norm :     0.0004545 Eh/α   predicted    -0.2035374E-05 ( -26.45%)
   displ. norm   :     0.0049341 α      lambda       -0.6374670E-06
   maximum displ.:     0.0025376 α      in ANC's #1, #3, #2, ...

........................................................................
.............................. CYCLE   41 ..............................
........................................................................

 iter      E             dE          RMSdq      gap      omega  full diag
   1    -17.1849148 -0.171849E+02  0.412E-03    5.14       0.0  T
   2    -17.1849148 -0.624269E-08  0.237E-03    5.14      12.2  T
   3    -17.1849148 -0.336691E-09  0.390E-04    5.14      74.0  T
   4    -17.1849148 -0.199069E-09  0.103E-04    5.14     279.1  T
     SCC iter.                  ...        0 min,  0.001 sec
     gradient                   ...        0 min,  0.001 sec
 * total energy  :   -16.9834666 Eh     change       -0.2731136E-06 Eh
   gradient norm :     0.0004217 Eh/α   predicted    -0.3199868E-06 (  17.16%)
   displ. norm   :     0.0086214 α      lambda       -0.2910301E-06
   maximum displ.:     0.0066828 α      in ANC's #2, #17, #21, ...

........................................................................
.............................. CYCLE   42 ..............................
........................................................................

 iter      E             dE          RMSdq      gap      omega  full diag
   1    -17.1849720 -0.171850E+02  0.297E-03    5.14       0.0  T
   2    -17.1849720 -0.253000E-08  0.177E-03    5.14      16.3  T
   3    -17.1849720 -0.495710E-10  0.287E-04    5.14     100.6  T
   4    -17.1849720 -0.283077E-09  0.764E-05    5.14     378.0  T
     SCC iter.                  ...        0 min,  0.001 sec
     gradient                   ...        0 min,  0.001 sec
 * total energy  :   -16.9834668 Eh     change       -0.2167164E-06 Eh
   gradient norm :     0.0002335 Eh/α   predicted    -0.1447013E-06 ( -33.23%)
   displ. norm   :     0.0033689 α      lambda       -0.1052897E-06
   maximum displ.:     0.0023335 α      in ANC's #2, #1, #5, ...
 * RMSD in coord.:     0.7227499 α      energy gain  -0.2273132E-02 Eh

generating ANC from exact Hessian ...
Using Lindh-Hessian (1995)
 Shifting diagonal of input Hessian by   0.000000000000000E+000
 Lowest  eigenvalues of input Hessian
    0.000000    0.000000    0.000000    0.000000    0.000000    0.000000
    0.010145    0.011115    0.014500    0.021232    0.024898    0.025892
    0.066072    0.074633    0.074801    0.091446    0.096083    0.123469
 Highest eigenvalues
    1.136696    1.145873    1.213532    1.582263    1.866238    2.409384
 

........................................................................
.............................. CYCLE   43 ..............................
........................................................................

 iter      E             dE          RMSdq      gap      omega  full diag
   1    -17.1850087 -0.171850E+02  0.170E-03    5.14       0.0  T
   2    -17.1850087 -0.652321E-09  0.994E-04    5.14      29.0  T
   3    -17.1850087 -0.585700E-10  0.138E-04    5.14     209.4  T
     SCC iter.                  ...        0 min,  0.000 sec
     gradient                   ...        0 min,  0.001 sec
 * total energy  :   -16.9834669 Eh     change       -0.8366451E-07 Eh
   gradient norm :     0.0000920 Eh/α   predicted     0.0000000E+00 (-100.00%)
   displ. norm   :     0.0016021 α      lambda       -0.2924348E-07
   maximum displ.:     0.0013880 α      in ANC's #1, #2, #3, ...

   *** GEOMETRY OPTIMIZATION CONVERGED AFTER 43 ITERATIONS ***

------------------------------------------------------------------------
 total energy gain   :        -0.0033783 Eh       -2.1199 kcal/mol
 total RMSD          :         0.9060891 a0        0.4795 Å
 total power (kW/mol):        -0.2062757 (step)  -52.5285 (real)
------------------------------------------------------------------------

 ANCopt (total)                0 d,  0 h,  0 min,  0.169 sec
 optimizer setup                ...        0 min,  0.001 sec (  0.297%)
 model hessian                  ...        0 min,  0.006 sec (  3.784%)
 ANC generation                 ...        0 min,  0.001 sec (  0.314%)
 coordinate transformation      ...        0 min,  0.000 sec (  0.138%)
 single point calculation       ...        0 min,  0.154 sec ( 91.432%)
 optimization log               ...        0 min,  0.003 sec (  1.813%)
 hessian update                 ...        0 min,  0.000 sec (  0.117%)
 rational function              ...        0 min,  0.002 sec (  1.213%)

================
 final structure:
================
$coord
       -0.95136161217506       -2.66391305080318       -0.00136100603920      C
       -0.77918656082930        0.05780563173791        0.03587092579771      N
       -3.10670320987425        1.42699311873740       -0.25950511927490      C
        1.47273836678136        1.18855014009035        0.33414477682300      C
        3.47097544108375        0.11487083048526        0.58740024926141      O
       -1.72802279287103       -3.31369118765095       -1.80001463114387      H
       -2.16024766599355       -3.33158607070994        1.53270694786287      H
        0.94663664663811       -3.41804240757254        0.24101096637418      H
       -2.74362360250043        3.45031119068277       -0.19576264045379      H
       -4.42636391634924        0.93699153469847        1.25362061791574      H
       -3.98971934991246        0.96334323928159       -2.06969148658601      H
        1.31153686697541        3.27323070703603        0.32455833826161      H
$end
 
 Bond Distances (Angstroems)
 ---------------------------
C1-N2=1.4433         C1-H6=1.0923         C1-H7=1.0923         C1-H8=1.0883         N2-C1=1.4433         N2-C3=1.4375         
N2-C4=1.3428         C3-N2=1.4375         C3-H9=1.0883         C3-H10=1.0936        C3-H11=1.0937        C4-N2=1.3428         
C4-O5=1.2079         C4-H12=1.1065        O5-C4=1.2079         H6-C1=1.0923         H7-C1=1.0923         H8-C1=1.0883         
H9-C3=1.0883         H10-C3=1.0936        H11-C3=1.0937        H12-C4=1.1065        
 C  H  Rav=1.0936 sigma=0.0057  Rmin=1.0883  Rmax=1.1065     7
 N  C  Rav=1.4079 sigma=0.0461  Rmin=1.3428  Rmax=1.4433     3
 O  C  Rav=1.2079 sigma=0.0000  Rmin=1.2079  Rmax=1.2079     1
 
 selected bond angles (degree)
 --------------------
H6-C1-N2=110.47                H7-C1-N2=110.46                H7-C1-H6=108.99                H8-C1-N2=107.82                
H8-C1-H6=109.54                H8-C1-H7=109.53                C3-N2-C1=116.58                C4-N2-C1=120.15                
C4-N2-C3=123.27                H9-C3-N2=109.95                H10-C3-N2=110.36               H10-C3-H9=108.86               
H11-C3-N2=110.38               H11-C3-H9=108.86               H11-C3-H10=108.38              O5-C4-N2=125.48                
H12-C4-N2=112.04               H12-C4-O5=122.48               
 
 selected dihedral angles (degree)
 ---------------------------------
C3-N2-C1-H6= 60.31            C3-N2-C1-H7=299.64            C3-N2-C1-H8=179.99            C4-N2-C1-H6=240.33            
C4-N2-C1-H7=119.66            C4-N2-C1-H8=  0.00            H9-C3-N2-C1=179.84            H9-C3-N2-C4=359.82            
H10-C3-N2-C1= 59.73           H10-C3-N2-C4=239.71           H11-C3-N2-C1=299.95           H11-C3-N2-C4=119.93           
O5-C4-N2-C1=  0.00            O5-C4-N2-C3=180.03            H12-C4-N2-C1=180.00           H12-C4-N2-C3=  0.00           
           -------------------------------------------------
          |                Final Singlepoint                |
           -------------------------------------------------

          ...................................................
          :                      SETUP                      :
          :.................................................:
          :  # basis functions                  27          :
          :  # atomic orbitals                  27          :
          :  # shells                           17          :
          :  # electrons                        30          :
          :  max. iterations                   250          :
          :  Hamiltonian                  GFN2-xTB          :
          :  restarted?                      false          :
          :  GBSA solvation                  false          :
          :  PC potential                    false          :
          :  electronic temp.          300.0000000     K    :
          :  accuracy                    1.0000000          :
          :  -> integral cutoff          0.2500000E+02      :
          :  -> integral neglect         0.1000000E-07      :
          :  -> SCF convergence          0.1000000E-05 Eh   :
          :  -> wf. convergence          0.1000000E-03 e    :
          :  Broyden damping             0.4000000          :
          :  net charge                          0          :
          :  unpaired electrons                  0          :
          ...................................................

 iter      E             dE          RMSdq      gap      omega  full diag
   1    -17.1850087 -0.171850E+02  0.469E-05    5.14       0.0  T
   2    -17.1850087 -0.114753E-11  0.256E-05    5.14    1127.6  T
   3    -17.1850087 -0.216716E-12  0.481E-06    5.14    5995.6  T

   *** convergence criteria satisfied after 3 iterations ***

         #    Occupation            Energy/Eh            Energy/eV
      -------------------------------------------------------------
         1        2.0000           -0.6947154             -18.9042
       ...           ...                  ...                  ...
         9        2.0000           -0.5058461             -13.7648
        10        2.0000           -0.5009015             -13.6302
        11        2.0000           -0.4958338             -13.4923
        12        2.0000           -0.4911541             -13.3650
        13        2.0000           -0.4772948             -12.9879
        14        2.0000           -0.3961539             -10.7799
        15        2.0000           -0.3957679             -10.7694 (HOMO)
        16                         -0.2068869              -5.6297 (LUMO)
        17                          0.0021575               0.0587
        18                          0.0760046               2.0682
        19                          0.1155292               3.1437
        20                          0.1511829               4.1139
       ...                                ...                  ...
        27                          0.6369460              17.3322
      -------------------------------------------------------------
                  HL-Gap            0.1888810 Eh            5.1397 eV
             Fermi-level           -0.3013274 Eh           -8.1995 eV

 SCC (total)                   0 d,  0 h,  0 min,  0.003 sec
 SCC setup                      ...        0 min,  0.000 sec (  2.827%)
 Dispersion                     ...        0 min,  0.000 sec (  0.908%)
 classical contributions        ...        0 min,  0.000 sec (  0.363%)
 integral evaluation            ...        0 min,  0.001 sec ( 22.441%)
 iterations                     ...        0 min,  0.000 sec ( 16.381%)
 molecular gradient             ...        0 min,  0.001 sec ( 53.043%)
 printout                       ...        0 min,  0.000 sec (  3.475%)

         :::::::::::::::::::::::::::::::::::::::::::::::::::::
         ::                     SUMMARY                     ::
         :::::::::::::::::::::::::::::::::::::::::::::::::::::
         :: total energy             -16.983466871960 Eh    ::
         :: gradient norm              0.000093621937 Eh/a0 ::
         :: HOMO-LUMO gap              5.139714666416 eV    ::
         ::.................................................::
         :: SCC energy               -17.185002743456 Eh    ::
         :: -> isotropic ES            0.034691725557 Eh    ::
         :: -> anisotropic ES          0.003049311368 Eh    ::
         :: -> anisotropic XC          0.005938329813 Eh    ::
         :: -> dispersion             -0.005896904966 Eh    ::
         :: repulsion energy           0.201535871496 Eh    ::
         :: add. restraining           0.000000000000 Eh    ::
         :: total charge              -0.000000000000 e     ::
         :::::::::::::::::::::::::::::::::::::::::::::::::::::

           ------------------------------------------------- 
          |                Numerical Hessian                |
           ------------------------------------------------- 
step length          :   0.00500
SCC accuracy         :   0.30000
Hessian scale factor :   1.00000
frozen atoms in %    :   0.00000    0
RMS gradient         :   0.00009
estimated CPU  time      0.00 min
estimated wall time      0.00 min

writing file <hessian>.

 projected vibrational frequencies (cm⁻¹)
eigval :       -0.00    -0.00     0.00     0.00     0.00     0.00
eigval :      127.84   157.41   221.12   297.05   316.04   382.69
eigval :      647.69   881.18   917.34  1048.22  1089.41  1093.50
eigval :     1129.04  1256.54  1382.27  1392.99  1404.48  1433.07
eigval :     1458.99  1467.45  1479.06  1498.19  1759.74  2765.64
eigval :     2946.62  2963.46  2969.41  2981.97  3030.81  3038.63
           -------------------------------------------------
          |                Property Printout                |
           -------------------------------------------------

    * Orbital Energies and Occupations

         #    Occupation            Energy/Eh            Energy/eV
      -------------------------------------------------------------
         1        2.0000           -0.6947154             -18.9042
       ...           ...                  ...                  ...
         3        2.0000           -0.6425285             -17.4841
         4        2.0000           -0.6347605             -17.2727
         5        2.0000           -0.5777322             -15.7209
         6        2.0000           -0.5641210             -15.3505
         7        2.0000           -0.5576622             -15.1748
         8        2.0000           -0.5412851             -14.7291
         9        2.0000           -0.5058461             -13.7648
        10        2.0000           -0.5009016             -13.6302
        11        2.0000           -0.4958338             -13.4923
        12        2.0000           -0.4911541             -13.3650
        13        2.0000           -0.4772948             -12.9879
        14        2.0000           -0.3961539             -10.7799
        15        2.0000           -0.3957680             -10.7694 (HOMO)
        16                         -0.2068869              -5.6297 (LUMO)
        17                          0.0021574               0.0587
        18                          0.0760046               2.0682
        19                          0.1155291               3.1437
        20                          0.1511829               4.1139
        21                          0.1573964               4.2830
        22                          0.1840911               5.0094
        23                          0.1997274               5.4349
        24                          0.2118444               5.7646
        25                          0.2382529               6.4832
        26                          0.3926238              10.6838
        27                          0.6369460              17.3322
      -------------------------------------------------------------
                  HL-Gap            0.1888811 Eh            5.1397 eV
             Fermi-level           -0.3013274 Eh           -8.1995 eV

     #   Z          covCN         q      C6AA      α(0)
     1   6 C        3.703    -0.051    21.645     6.652
     2   7 N        2.728    -0.079    22.769     7.087
     3   6 C        3.698    -0.051    21.659     6.656
     4   6 C        2.710     0.243    22.935     7.839
     5   8 O        0.857    -0.419    22.068     6.298
     6   1 H        0.924     0.050     2.321     2.382
     7   1 H        0.924     0.050     2.321     2.383
     8   1 H        0.925     0.089     1.888     2.149
     9   1 H        0.925     0.059     2.216     2.328
    10   1 H        0.924     0.055     2.254     2.348
    11   1 H        0.924     0.055     2.255     2.348
    12   1 H        0.922    -0.001     3.079     2.744

 Mol. C6AA /au·bohr⁶  :       1166.079590
 Mol. C8AA /au·bohr⁸  :      24351.159461
 Mol. α(0) /au        :         51.214909


Wiberg/Mayer (AO) data.
largest (>0.10) Wiberg bond orders for each atom

 ---------------------------------------------------------------------------
     #   Z sym  total        # sym  WBO       # sym  WBO       # sym  WBO
 ---------------------------------------------------------------------------
     1   6 C    3.965 --     2 N    0.996     6 H    0.977     7 H    0.977
                             8 H    0.974
     2   7 N    3.516 --     4 C    1.276     3 C    1.008     1 C    0.996
                             5 O    0.216
     3   6 C    3.973 --     2 N    1.008     9 H    0.979    10 H    0.975
                            11 H    0.975
     4   6 C    3.957 --     5 O    1.709     2 N    1.276    12 H    0.919
     5   8 O    2.023 --     4 C    1.709     2 N    0.216
     6   1 H    0.998 --     1 C    0.977
     7   1 H    0.998 --     1 C    0.977
     8   1 H    0.992 --     1 C    0.974
     9   1 H    0.997 --     3 C    0.979
    10   1 H    0.997 --     3 C    0.975
    11   1 H    0.997 --     3 C    0.975
    12   1 H    1.000 --     4 C    0.919
 ---------------------------------------------------------------------------

Topologies differ in total number of bonds
Writing topology from bond orders to xtbtopo.mol

molecular dipole:
                 x           y           z       tot (Debye)
 q only:       -1.568      -0.034      -0.204
   full:       -1.789       0.127      -0.231       4.597
molecular quadrupole (traceless):
                xx          xy          yy          xz          yz          zz
 q only:       -3.888      -0.431       3.677      -0.875      -0.045       0.211
  q+dip:       -5.519       0.448       4.279      -1.268       0.100       1.239
   full:       -5.670       0.247       4.186      -1.321       0.071       1.484

           -------------------------------------------------
          |                Geometry Summary                 |
           -------------------------------------------------

      molecular mass/u    :       73.0939011
   center of mass at/Å    :        0.0048992       0.0044576       0.0728413
  moments of inertia/u·Å² :        0.5514274E+02   0.1192548E+03   0.1680384E+03
rotational constants/cm⁻¹ :        0.3057090E+00   0.1413581E+00   0.1003201E+00

 * 10 selected distances

     #   Z          #   Z                                           value/Å
     1   6 C        2   7 N                                       1.4432851 (max)
     2   7 N        3   6 C                                       1.4374986
     2   7 N        4   6 C                                       1.3427675
     4   6 C        5   8 O                                       1.2078553
     1   6 C        6   1 H                                       1.0922825
     1   6 C        7   1 H                                       1.0922810
     1   6 C        8   1 H                                       1.0883380
     3   6 C        9   1 H                                       1.0883191 (min)
     3   6 C       10   1 H                                       1.0936387
     3   6 C       11   1 H                                       1.0936781

 * 3 distinct bonds (by element types)

   Z      Z             #   av. dist./Å        max./Å        min./Å
   1 H    6 C           6     1.0914229     1.0936781     1.0883191
   6 C    7 N           3     1.4078504     1.4432851     1.3427675
   6 C    8 O           1     1.2078553     1.2078553     1.2078553

           -------------------------------------------------
          |               Frequency Printout                |
           -------------------------------------------------
 projected vibrational frequencies (cm⁻¹)
eigval :       -0.00    -0.00     0.00     0.00     0.00     0.00
eigval :      127.84   157.41   221.12   297.05   316.04   382.69
eigval :      647.69   881.18   917.34  1048.22  1089.41  1093.50
eigval :     1129.04  1256.54  1382.27  1392.99  1404.48  1433.07
eigval :     1458.99  1467.45  1479.06  1498.19  1759.74  2765.64
eigval :     2946.62  2963.46  2969.41  2981.97  3030.81  3038.63
 reduced masses (amu)
   1: 12.67   2: 10.80   3: 11.38   4: 11.07   5: 11.84   6: 10.38   7:  5.02   8:  1.57
   9:  7.38  10: 11.41  11:  9.19  12:  8.49  13: 12.16  14: 10.11  15:  5.22  16:  3.83
  17:  5.42  18:  3.08  19:  4.20  20: 11.62  21:  5.18  22:  2.53  23:  6.33  24:  5.53
  25:  1.56  26:  1.54  27:  1.87  28:  2.78  29: 13.25  30:  1.66  31:  1.94  32:  1.95
  33:  1.48  34:  1.42  35:  1.70  36:  1.72
 IR intensities (km·mol⁻¹)
   1:  0.75   2:  2.12   3:  1.32   4:  3.62   5:  4.83   6:  0.20   7:  0.04   8:  0.15
   9:  0.26  10: 12.30  11: 25.79  12:  1.48  13:  7.22  14:  8.60  15:  8.15  16:  0.85
  17: 76.02  18:  0.01  19:  1.32  20: 27.31  21:  5.88  22:  5.95  23: 22.86  24: 22.68
  25:  1.68  26: 19.44  27:  6.84  28: 17.07  29:684.89  30:154.69  31: 30.53  32: 31.05
  33: 28.74  34: 47.34  35: 20.10  36:  5.46
 Raman intensities (Ä⁴*amu⁻¹)
   1:  0.00   2:  0.00   3:  0.00   4:  0.00   5:  0.00   6:  0.00   7:  0.00   8:  0.00
   9:  0.00  10:  0.00  11:  0.00  12:  0.00  13:  0.00  14:  0.00  15:  0.00  16:  0.00
  17:  0.00  18:  0.00  19:  0.00  20:  0.00  21:  0.00  22:  0.00  23:  0.00  24:  0.00
  25:  0.00  26:  0.00  27:  0.00  28:  0.00  29:  0.00  30:  0.00  31:  0.00  32:  0.00
  33:  0.00  34:  0.00  35:  0.00  36:  0.00
 output can be read by thermo (or use thermo option).
 writing <g98.out> molden fake output.
 recommended (thermochemical) frequency scaling factor: 1.0
           -------------------------------------------------
          |             Thermodynamic Functions             |
           -------------------------------------------------

Molecule has the following symmetry elements: (sigma) 
It seems to be the Cs point group
cs  symmetry found (for desy threshold:  0.10E+00) used in thermo

          ...................................................
          :                      SETUP                      :
          :.................................................:
          :  # frequencies                          30      :
          :  # imaginary freq.                       0      :
          :  linear?                             false      :
          :  only rotor calc.                    false      :
          :  symmetry                               cs      :
          :  rotational number                       1      :
          :  scaling factor                  1.0000000      :
          :  rotor cutoff                    0.0000000 cm⁻¹ :
          :  imag. cutoff                 -100.0000000 cm⁻¹ :
          :.................................................:

    mode    ω/cm⁻¹     T·S(HO)/kcal·mol⁻¹    T·S(FR)/kcal·mol⁻¹   T·S(vib)
   ------------------------------------------------------------------------
       1    127.84    -0.88799 (100.00%)    -0.77811 (  0.00%)    -0.88799
       2    157.41    -0.76944 (100.00%)    -0.71654 (  0.00%)    -0.76944
       3    221.12    -0.58136 (100.00%)    -0.61593 (  0.00%)    -0.58136
       4    297.05    -0.42738 (100.00%)    -0.52853 (  0.00%)    -0.42738
   ------------------------------------------------------------------------

   temp. (K)  partition function   enthalpy   heat capacity  entropy
                                   cal/mol     cal/K/mol   cal/K/mol   J/K/mol
 298.15  VIB   13.7                 2138.126     14.500     12.379
         ROT  0.803E+05              888.752      2.981     25.424
         INT  0.110E+07             3026.878     17.481     37.803
         TR   0.605E+27             1481.254      4.968     38.766
         TOT                        4508.1318    22.4490    76.5689   320.3641

       T/K    H(0)-H(T)+PV         H(T)/Eh          T*S/Eh         G(T)/Eh
   ------------------------------------------------------------------------
    298.15    0.718417E-02    0.106371E+00    0.363803E-01    0.699903E-01
   ------------------------------------------------------------------------

         :::::::::::::::::::::::::::::::::::::::::::::::::::::
         ::                  THERMODYNAMIC                  ::
         :::::::::::::::::::::::::::::::::::::::::::::::::::::
         :: total free energy         -16.913476610178 Eh   ::
         ::.................................................::
         :: total energy              -16.983466871960 Eh   ::
         :: zero point energy           0.099186430776 Eh   ::
         :: G(RRHO) w/o ZPVE           -0.029196168993 Eh   ::
         :: G(RRHO) contrib.            0.069990261782 Eh   ::
         :::::::::::::::::::::::::::::::::::::::::::::::::::::

optimized geometry written to: xtbopt.coord


           -------------------------------------------------
          | TOTAL ENERGY              -16.983466871960 Eh   |
          | TOTAL ENTHALPY            -16.877096275863 Eh   |
          | TOTAL FREE ENERGY         -16.913476610178 Eh   |
          | GRADIENT NORM               0.000093570772 Eh/α |
          | HOMO-LUMO GAP               5.139716114595 eV   |
           -------------------------------------------------

------------------------------------------------------------------------
 * finished run on 2025/04/15 at 20:29:29.429     
------------------------------------------------------------------------
 total:
 * wall-time:     0 d,  0 h,  0 min,  0.430 sec
 *  cpu-time:     0 d,  0 h,  0 min,  0.401 sec
 * ratio c/w:     0.934 speedup
 SCF:
 * wall-time:     0 d,  0 h,  0 min,  0.034 sec
 *  cpu-time:     0 d,  0 h,  0 min,  0.016 sec
 * ratio c/w:     0.489 speedup
 ANC optimizer:
 * wall-time:     0 d,  0 h,  0 min,  0.175 sec
 *  cpu-time:     0 d,  0 h,  0 min,  0.172 sec
 * ratio c/w:     0.984 speedup
 analytical hessian:
 * wall-time:     0 d,  0 h,  0 min,  0.202 sec
 *  cpu-time:     0 d,  0 h,  0 min,  0.201 sec
 * ratio c/w:     0.996 speedup

