18
 energy: -310.780153512065 gnorm: 0.017194968484 xtb: 6.7.1 (edcfbbe)
C           -2.74482983421631        0.00070957250031       -0.73491445242566
C           -1.97149930727362       -0.00090574180040        0.58526871225935
C           -0.49164079001786       -0.00046919470021        0.32614896414453
C            0.20173992508940       -1.19504541342956        0.18030954447990
C            1.55647553858972       -1.19645140633018       -0.10013786374437
C            2.23741346969146        0.00049714820022       -0.24112527070685
C            1.55574846888939        1.19697189043041       -0.09955218754411
C            0.20103547948908        1.19460983502936        0.18092571108017
H           -2.49260039580454        0.88263799819112       -1.31957426848474
H           -3.81665341629126        0.00105872170047       -0.54959375164354
H           -2.49341976160490       -0.88035986039011       -1.32125881018548
H           -2.24664192419555       -0.88632723609276        1.16215756171498
H           -2.24674527229559        0.88308155839132        1.16432147771594
H           -0.32522244694411       -2.13260780474502        0.29091504032891
H            2.08278577802294       -2.13398105244562       -0.20813776099223
H            3.29540058166028        0.00086065090038       -0.45896555390338
H            2.08153169292238        2.13483598444600       -0.20697914399172
H           -0.32648352644467        2.13179383384465        0.29209581682944
18
 energy: -310.780831420755 gnorm: 0.004121049277 xtb: 6.7.1 (edcfbbe)
C           -2.75910343418053        0.00069895312794       -0.73782408109700
C           -1.97587136013089       -0.00087091764056        0.58127189805971
C           -0.49103375953561       -0.00047037374621        0.33779322566336
C            0.20576342330191       -1.19915425039535        0.18676811866513
C            1.56497855798068       -1.20121072980440       -0.10195485688478
C            2.24933053187429        0.00048796351778       -0.24471097876763
C            1.56427700397271        1.20171847954731       -0.10128219148473
C            0.20507734643349        1.19870981988680        0.18743299045198
H           -2.50614283786827        0.88397363594619       -1.32962808286300
H           -3.83727399314457        0.00096902040703       -0.55852711337096
H           -2.50683989073962       -0.88164639167900       -1.33131394312369
H           -2.25091269388977       -0.88306865036166        1.16811464266983
H           -2.25101756425953        0.87987310981164        1.17025635697026
H           -0.32424498172019       -2.14041170018800        0.29791413685638
H            2.09254168373263       -2.14262002161251       -0.20964034039119
H            3.31105343340915        0.00085444886288       -0.46338883845653
H            2.09129986808134        2.14348188787841       -0.20847073969860
H           -0.32548669936381        2.13959536431027        0.29909351117220
18
 energy: -310.780883431110 gnorm: 0.000621653226 xtb: 6.7.1 (edcfbbe)
C           -2.76464771598183        0.00067789951124       -0.73874258177335
C           -1.97827661923479       -0.00084450403175        0.57946379597315
C           -0.49208047771649       -0.00045459754660        0.33448259790448
C            0.20800443253275       -1.20021127366283        0.18719108159261
C            1.56950463294326       -1.20253644793153       -0.09973457999963
C            2.25475881558744        0.00047856607086       -0.24470343373806
C            1.56882862363650        1.20303761869849       -0.09905102555063
C            0.20734535314485        1.19978303321412        0.18787659712748
H           -2.51505048466632        0.88447948860804       -1.33437997104242
H           -3.84384533857113        0.00085234299025       -0.55671923965840
H           -2.51559789092533       -0.88213127269137       -1.33607035957881
H           -2.25367248712385       -0.88206492507183        1.16997129952505
H           -2.25377914201712        0.87894124220000        1.17206350554955
H           -0.32209753566386       -2.14277413709242        0.30039343166152
H            2.09715299461825       -2.14517795922845       -0.20843913680588
H            3.31718197595654        0.00083902979045       -0.46609489986280
H            2.09595607835609        2.14603334507439       -0.20721669395130
H           -0.32329036043056        2.14198257313363        0.30161388688028
18
 energy: -310.780888867511 gnorm: 0.000474668401 xtb: 6.7.1 (edcfbbe)
C           -2.76885403434718        0.00064915524283       -0.73857287731509
C           -1.97825484063035       -0.00081560457083        0.57675804927903
C           -0.49141377945335       -0.00043230075117        0.33248120571711
C            0.20959542063261       -1.20004754729973        0.18628045210395
C            1.57132741596362       -1.20239615244631       -0.09953457867935
C            2.25692575095996        0.00046854208337       -0.24387022832908
C            1.57068649596902        1.20289292280938       -0.09881949803507
C            0.20896872593585        1.19964670088977        0.18699130613647
H           -2.52204840330423        0.88454639670141       -1.33526825907499
H           -3.84750567086849        0.00071981646942       -0.55274979447269
H           -2.52243342808208       -0.88219711533424       -1.33697176559408
H           -2.25333437770696       -0.88191761695282        1.16788153978824
H           -2.25344679402718        0.87888877661308        1.16991253448243
H           -0.31984991488587       -2.14285729850629        0.30034548752655
H            2.09934024930878       -2.14513642888854       -0.20553843267890
H            3.31947536482325        0.00081744928566       -0.46477173420192
H            2.09819996905353        2.14597568713197       -0.20426529450259
H           -0.32098314869188        2.14210513771449        0.30161704901375
18
 energy: -310.780891767796 gnorm: 0.000244531079 xtb: 6.7.1 (edcfbbe)
C           -2.77209817215275        0.00060576887652       -0.73815898494674
C           -1.97772842132747       -0.00077623065215        0.57466483578364
C           -0.49106473608031       -0.00039958982142        0.32865569487402
C            0.21046257984093       -1.19981599207206        0.18420184402737
C            1.57265722601586       -1.20215713570923       -0.09855720840623
C            2.25850291831919        0.00045558069491       -0.24198842308667
C            1.57206420634170        1.20264913975131       -0.09779938126600
C            0.20988194928063        1.19945678711530        0.18495888951577
H           -2.52877849220430        0.88460191780492       -1.33584143553649
H           -3.84973913822554        0.00053891391825       -0.54697138992974
H           -2.52895107210287       -0.88226825144250       -1.33755917021186
H           -2.25128438609799       -0.88189337351301        1.16632272392006
H           -2.25140896227623        0.87900280562818        1.16825834533864
H           -0.31851658674727       -2.14275982597683        0.29786061935973
H            2.10079977320882       -2.14486105519180       -0.20303443140004
H            3.32141863251999        0.00078659170047       -0.46063412366986
H            2.09974348487801        2.14567793405012       -0.20168269899582
H           -0.31956569540226        2.14206721101641        0.29921077060544
18
 energy: -310.780891767796 gnorm: 0.000244531079 xtb: 6.7.1 (edcfbbe)
C           -2.77209817215275        0.00060576887652       -0.73815898494674
C           -1.97772842132747       -0.00077623065215        0.57466483578364
C           -0.49106473608031       -0.00039958982142        0.32865569487402
C            0.21046257984093       -1.19981599207206        0.18420184402737
C            1.57265722601586       -1.20215713570923       -0.09855720840623
C            2.25850291831919        0.00045558069491       -0.24198842308667
C            1.57206420634170        1.20264913975131       -0.09779938126600
C            0.20988194928063        1.19945678711530        0.18495888951577
H           -2.52877849220430        0.88460191780492       -1.33584143553649
H           -3.84973913822554        0.00053891391825       -0.54697138992974
H           -2.52895107210287       -0.88226825144250       -1.33755917021186
H           -2.25128438609799       -0.88189337351301        1.16632272392006
H           -2.25140896227623        0.87900280562818        1.16825834533864
H           -0.31851658674727       -2.14275982597683        0.29786061935973
H            2.10079977320882       -2.14486105519180       -0.20303443140004
H            3.32141863251999        0.00078659170047       -0.46063412366986
H            2.09974348487801        2.14567793405012       -0.20168269899582
H           -0.31956569540226        2.14206721101641        0.29921077060544
