
                                 *****************
                                 * O   R   C   A *
                                 *****************

                                            #,                                       
                                            ###                                      
                                            ####                                     
                                            #####                                    
                                            ######                                   
                                           ########,                                 
                                     ,,################,,,,,                         
                               ,,#################################,,                 
                          ,,##########################################,,             
                       ,#########################################, ''#####,          
                    ,#############################################,,   '####,        
                  ,##################################################,,,,####,       
                ,###########''''           ''''###############################       
              ,#####''   ,,,,##########,,,,          '''####'''          '####       
            ,##' ,,,,###########################,,,                        '##       
           ' ,,###''''                  '''############,,,                           
         ,,##''                                '''############,,,,        ,,,,,,###''
      ,#''                                            '''#######################'''  
     '                                                          ''''####''''         
             ,#######,   #######,   ,#######,      ##                                
            ,#'     '#,  ##    ##  ,#'     '#,    #''#        ,####,   ,####,        
            ##       ##  ##   ,#'  ##            #'  '#       #'       #'  '#        
            ##       ##  #######   ##           ,######,      #####,   #    #        
            '#,     ,#'  ##    ##  '#,     ,#' ,#      #,     #,   #   #,  ,#        
             '#######'   ##     ##  '#######'  #'      '#     '####' # '####'        



                #########################################################
                #                        -***-                          #
                #          Department of theory and spectroscopy        #
                #                                                       #
                #                      Frank Neese                      #
                #                                                       #
                #     Directorship, Architecture, Infrastructure        #
                #                    SHARK, DRIVERS                     #
                #        Core code/Algorithms in most modules           #
                #                                                       #
                #        Max Planck Institute fuer Kohlenforschung      #
                #                Kaiser Wilhelm Platz 1                 #
                #                 D-45470 Muelheim/Ruhr                 #
                #                      Germany                          #
                #                                                       #
                #                  All rights reserved                  #
                #                        -***-                          #
                #########################################################


                         Program Version 6.0.0  -   RELEASE  -


 With contributions from (in alphabetic order):
   Daniel Aravena         : Magnetic Suceptibility
   Michael Atanasov       : Ab Initio Ligand Field Theory (pilot matlab implementation)
   Alexander A. Auer      : GIAO ZORA, VPT2 properties, NMR spectrum
   Ute Becker             : All parallelization in ORCA, NUMFREQ, NUMCALC
   Giovanni Bistoni       : ED, misc. LED, open-shell LED, HFLD
   Martin Brehm           : Molecular dynamics
   Dmytro Bykov           : pre 5.0 version of the SCF Hessian
   Marcos Casanova-Páez   : Triplet and SCS-CIS(D). UHF-(DLPNO)-IP/EA/STEOM-CCSD. UHF-CVS-IP/STEOM-CCSD
   Vijay G. Chilkuri      : MRCI spin determinant printing, contributions to CSF-ICE
   Pauline Colinet        : FMM embedding
   Dipayan Datta          : RHF DLPNO-CCSD density
   Achintya Kumar Dutta   : EOM-CC, STEOM-CC
   Nicolas Foglia         : Exact transition moments, OPA infrastructure, MCD improvements
   Dmitry Ganyushin       : Spin-Orbit,Spin-Spin,Magnetic field MRCI
   Miquel Garcia          : C-PCM and meta-GGA Hessian, CCSD/C-PCM, Gaussian charge scheme
   Tiago L. C. Gouveia    : GS-ROHF, GS-ROCIS
   Yang Guo               : DLPNO-NEVPT2, F12-NEVPT2, CIM, IAO-localization
   Andreas Hansen         : Spin unrestricted coupled pair/coupled cluster methods
   Ingolf Harden          : AUTO-CI MPn and infrastructure 
   Benjamin Helmich-Paris : MC-RPA, TRAH-(SCF,CASSCF), AVAS, COSX integrals, SCF dyn. polar.
   Lee Huntington         : MR-EOM, pCC
   Robert Izsak           : Overlap fitted RIJCOSX, COSX-SCS-MP3, EOM
   Riya Kayal             : Wick's Theorem for AUTO-CI, AUTO-CI UHF-CCSDT
   Emily Kempfer          : AUTO-CI, RHF CISDT and CCSDT
   Christian Kollmar      : KDIIS, OOCD, Brueckner-CCSD(T), CCSD density, CASPT2, CASPT2-K, improved NEVPT2
   Axel Koslowski         : Symmetry handling
   Simone Kossmann        : Meta GGA functionals, TD-DFT gradient, OOMP2, (MP2 Hessian; deprecated post 5.0)
   Lucas Lang             : DCDCAS
   Marvin Lechner         : AUTO-CI (C++ implementation), FIC-MRCC
   Spencer Leger          : CASSCF response
   Dagmar Lenk            : GEPOL surface, SMD, ORCA-2-JSON
   Dimitrios Liakos       : Extrapolation schemes; Compound Job, initial MDCI parallelization
   Dimitrios Manganas     : Further ROCIS development; embedding schemes. LFT, Crystal Embedding
   Dimitrios Pantazis     : SARC Basis sets
   Anastasios Papadopoulos: AUTO-CI, single reference methods and gradients
   Taras Petrenko         : pre 6.0 DFT Hessian and TD-DFT gradient, (ASA, deprecated), ECA, 1-Electron XAS/XES, NRVS
   Peter Pinski           : DLPNO-MP2, DLPNO-MP2 Gradient
   Christoph Reimann      : Effective Core Potentials
   Marius Retegan         : Local ZFS, SOC
   Christoph Riplinger    : Optimizer, TS searches, QM/MM, DLPNO-CCSD(T), (RO)-DLPNO pert. Triples
   Michael Roemelt        : Original ROCIS implementation
   Masaaki Saitow         : Open-shell DLPNO-CCSD energy and density
   Barbara Sandhoefer     : DKH picture change effects
   Kantharuban Sivalingam : CASSCF convergence/infrastructure, NEVPT2 and variants, FIC-MRCI
   Bernardo de Souza      : ESD, SOC TD-DFT
   Georgi Stoychev        : AutoAux, RI-MP2 NMR, DLPNO-MP2 response, X2C
   Van Anh Tran           : RI-MP2 g-tensors
   Willem Van den Heuvel  : Paramagnetic NMR
   Zikuan Wang            : NOTCH, Electric field optimization 
   Frank Wennmohs         : Technical directorship and infrastructure
   Hang Xu                : AUTO-CI-Response properties 


 We gratefully acknowledge several colleagues who have allowed us to
 interface, adapt or use parts of their codes:
   Stefan Grimme, W. Hujo, H. Kruse, P. Pracht,  : VdW corrections, initial TS optimization,
                  C. Bannwarth, S. Ehlert,         DFT functionals, gCP, sTDA/sTD-DF
                  L. Wittmann, M. Mueller
   Ed Valeev, F. Pavosevic, A. Kumar             : LibInt (2-el integral package), F12 methods
   Garnet Chan, S. Sharma, J. Yang, R. Olivares  : DMRG
   Ulf Ekstrom                                   : XCFun DFT Library
   Mihaly Kallay                                 : mrcc  (arbitrary order and MRCC methods)
   Frank Weinhold                                : gennbo (NPA and NBO analysis)
   Simon Mueller                                 : openCOSMO-RS
   Christopher J. Cramer and Donald G. Truhlar   : smd solvation model
   Lars Goerigk                                  : TD-DFT with DH, B97 family of functionals
   V. Asgeirsson, H. Jonsson                     : NEB implementation
   FAccTs GmbH                                   : IRC, NEB, NEB-TS, DLPNO-Multilevel, CI-OPT
                                                   MM, QMMM, 2- and 3-layer-ONIOM, Crystal-QMMM,
                                                   LR-CPCM, SF, NACMEs, symmetry and pop. for TD-DFT,
                                                   nearIR, NL-DFT gradient (VV10), updates on ESD,
                                                   ML-optimized integration grids, MBIS, APM,
                                                   GOAT, DOCKER, SOLVATOR, interface openCOSMO-RS
   S Lehtola, MJT Oliveira, MAL Marques          : LibXC Library
   Liviu Ungur et al                             : ANISO software


 Your calculation uses the libint2 library for the computation of 2-el integrals
 For citations please refer to: http://libint.valeyev.net

 Your ORCA version has been built with support for libXC version: 6.2.2
 For citations please refer to: https://libxc.gitlab.io

 This ORCA versions uses:
   CBLAS   interface :  Fast vector & matrix operations
   LAPACKE interface :  Fast linear algebra routines
   SCALAPACK package :  Parallel linear algebra routines
   Shared memory     :  Shared parallel matrices
   BLAS/LAPACK       :  OpenBLAS 0.3.27  USE64BITINT DYNAMIC_ARCH NO_AFFINITY SkylakeX SINGLE_THREADED
        Core in use  :  SkylakeX
   Copyright (c) 2011-2014, The OpenBLAS Project




***************************************
The coordinates will be read from file: vacuum_censo.xyz
***************************************


Your calculation utilizes the geometrical counterpoise correction gCP
Please cite in your paper:
H.Kruse, S. Grimme J.Chem.Phys., 136, (2012), 154101 
   

Your calculation utilizes the atom-pairwise dispersion correction
based on EEQ partial charges (D4)


================================================================================

----- Orbital basis set information -----
Your calculation utilizes the basis: def2-TZVP
   F. Weigend and R. Ahlrichs, Phys. Chem. Chem. Phys. 7, 3297 (2005).

----- AuxJ basis set information -----
Your calculation utilizes the basis: def2-mTZVPP/J
   Stefan Grimme, Andreas Hansen, Sebastian Ehlert, and Jan-Michael Mewes 
   J. Chem. Phys. 154, 000000 (2021). DOI: 10.1063/5.0040021

================================================================================
                                        WARNINGS
                       Please study these warnings very carefully!
================================================================================

Using LibXC functional ID 497 : Re-regularized SCAN exchange by Furness et al
[ 1]  J. W. Furness, A. D. Kaplan, J. Ning, J. P. Perdew, and J. Sun.,  J. Phys. Chem. Lett. 11, 8208-8215 (2020)
[ 2]  J. W. Furness, A. D. Kaplan, J. Ning, J. P. Perdew, and J. Sun.,  J. Phys. Chem. Lett. 11, 9248-9248 (2020)
Using LibXC functional ID 498 : Re-regularized SCAN correlation by Furness et al
[ 1]  J. W. Furness, A. D. Kaplan, J. Ning, J. P. Perdew, and J. Sun.,  J. Phys. Chem. Lett. 11, 8208-8215 (2020)
[ 2]  J. W. Furness, A. D. Kaplan, J. Ning, J. P. Perdew, and J. Sun.,  J. Phys. Chem. Lett. 11, 9248-9248 (2020)
Using LibXC functional ID 497 : Re-regularized SCAN exchange by Furness et al
[ 1]  J. W. Furness, A. D. Kaplan, J. Ning, J. P. Perdew, and J. Sun.,  J. Phys. Chem. Lett. 11, 8208-8215 (2020)
[ 2]  J. W. Furness, A. D. Kaplan, J. Ning, J. P. Perdew, and J. Sun.,  J. Phys. Chem. Lett. 11, 9248-9248 (2020)
Using LibXC functional ID 498 : Re-regularized SCAN correlation by Furness et al
[ 1]  J. W. Furness, A. D. Kaplan, J. Ning, J. P. Perdew, and J. Sun.,  J. Phys. Chem. Lett. 11, 8208-8215 (2020)
[ 2]  J. W. Furness, A. D. Kaplan, J. Ning, J. P. Perdew, and J. Sun.,  J. Phys. Chem. Lett. 11, 9248-9248 (2020)

================================================================================
                                       INPUT FILE
================================================================================
NAME = vacuum_censo.inp
|  1> ! r2SCAN-3c DEF2-TZVP FREQ
|  2> * xyzfile 0 1 vacuum_censo.xyz
|  3> 
|  4>                          ****END OF INPUT****
================================================================================

                       ****************************
                       * Single Point Calculation *
                       ****************************

---------------------------------
CARTESIAN COORDINATES (ANGSTROEM)
---------------------------------
  C     -0.729163   -1.200503    0.239056
  C      0.714478   -1.172840   -0.239515
  O      1.385969    0.000359    0.221302
  C      0.713904    1.173215   -0.239552
  C     -0.729757    1.200194    0.239001
  N     -1.408490   -0.000334   -0.262970
  H     -0.731309   -1.263040    1.344206
  H     -1.228400   -2.093320   -0.156834
  H      1.274233   -2.024229    0.159238
  H      0.737926   -1.209554   -1.341631
  H      1.273233    2.024889    0.159189
  H      0.737353    1.209917   -1.341668
  H     -0.731954    1.262792    1.344147
  H     -1.229425    2.092743   -0.156949
  H     -2.374529   -0.000564    0.043513

----------------------------
CARTESIAN COORDINATES (A.U.)
----------------------------
  NO LB      ZA    FRAG     MASS         X           Y           Z
   0 C     6.0000    0    12.011   -1.377918   -2.268622    0.451750
   1 C     6.0000    0    12.011    1.350167   -2.216346   -0.452618
   2 O     8.0000    0    15.999    2.619103    0.000678    0.418201
   3 C     6.0000    0    12.011    1.349084    2.217054   -0.452688
   4 C     6.0000    0    12.011   -1.379041    2.268038    0.451646
   5 N     7.0000    0    14.007   -2.661660   -0.000631   -0.496942
   6 H     1.0000    0     1.008   -1.381974   -2.386800    2.540181
   7 H     1.0000    0     1.008   -2.321339   -3.955802   -0.296373
   8 H     1.0000    0     1.008    2.407952   -3.825238    0.300915
   9 H     1.0000    0     1.008    1.394478   -2.285725   -2.535314
  10 H     1.0000    0     1.008    2.406062    3.826486    0.300825
  11 H     1.0000    0     1.008    1.393396    2.286412   -2.535384
  12 H     1.0000    0     1.008   -1.383192    2.386330    2.540069
  13 H     1.0000    0     1.008   -2.323277    3.954712   -0.296590
  14 H     1.0000    0     1.008   -4.487209   -0.001066    0.082227

--------------------------------
INTERNAL COORDINATES (ANGSTROEM)
--------------------------------
 C      0   0   0     0.000000000000     0.00000000     0.00000000
 C      1   0   0     1.521148749440     0.00000000     0.00000000
 O      2   1   0     1.428162885066   111.07847025     0.00000000
 C      3   2   1     1.428162836349   110.44113511   301.41643044
 C      4   3   2     1.521150633475   111.07905475    58.58304161
 N      1   2   3     1.467624037426   108.46954466    58.85810840
 H      1   2   3     1.106920591811   108.48013827   296.06335228
 H      1   2   3     1.096853904309   109.46378985   178.11501310
 H      2   1   3     1.094163251112   110.89826818   118.00940436
 H      2   1   3     1.102975952698   109.50787087   238.47636736
 H      4   3   2     1.094163361402   106.32454270   179.32885817
 H      4   3   2     1.102975810004   109.86235687   297.26628196
 H      5   4   3     1.106919631059   108.48046006    63.93819422
 H      5   4   3     1.096853774703   109.46355243   181.88668787
 H      6   1   2     1.013490542554   109.72926222   179.86075104

---------------------------
INTERNAL COORDINATES (A.U.)
---------------------------
 C      0   0   0     0.000000000000     0.00000000     0.00000000
 C      1   0   0     2.874554545398     0.00000000     0.00000000
 O      2   1   0     2.698836727405   111.07847025     0.00000000
 C      3   2   1     2.698836635343   110.44113511   301.41643044
 C      4   3   2     2.874558105708   111.07905475    58.58304161
 N      1   2   3     2.773407498294   108.46954466    58.85810840
 H      1   2   3     2.091776770521   108.48013827   296.06335228
 H      1   2   3     2.072753488067   109.46378985   178.11501310
 H      2   1   3     2.067668890402   110.89826818   118.00940436
 H      2   1   3     2.084322482901   109.50787087   238.47636736
 H      4   3   2     2.067669098821   106.32454270   179.32885817
 H      4   3   2     2.084322213247   109.86235687   297.26628196
 H      5   4   3     2.091774954963   108.48046006    63.93819422
 H      5   4   3     2.072753243146   109.46355243   181.88668787
 H      6   1   2     1.915219564747   109.72926222   179.86075104

---------------------
BASIS SET INFORMATION
---------------------
There are 4 groups of distinct atoms

 Group   1 Type C   : 11s6p2d1f contracted to 5s3p2d1f pattern {62111/411/11/1}
 Group   2 Type O   : 11s6p2d1f contracted to 5s3p2d1f pattern {62111/411/11/1}
 Group   3 Type N   : 11s6p2d1f contracted to 5s3p2d1f pattern {62111/411/11/1}
 Group   4 Type H   : 5s1p contracted to 3s1p pattern {311/1}

Atom   0C    basis set group =>   1
Atom   1C    basis set group =>   1
Atom   2O    basis set group =>   2
Atom   3C    basis set group =>   1
Atom   4C    basis set group =>   1
Atom   5N    basis set group =>   3
Atom   6H    basis set group =>   4
Atom   7H    basis set group =>   4
Atom   8H    basis set group =>   4
Atom   9H    basis set group =>   4
Atom  10H    basis set group =>   4
Atom  11H    basis set group =>   4
Atom  12H    basis set group =>   4
Atom  13H    basis set group =>   4
Atom  14H    basis set group =>   4
---------------------------------
AUXILIARY/J BASIS SET INFORMATION
---------------------------------
There are 4 groups of distinct atoms

 Group   1 Type C   : 8s3p3d contracted to 6s3p3d pattern {311111/111/111}
 Group   2 Type O   : 8s3p3d contracted to 6s3p3d pattern {311111/111/111}
 Group   3 Type N   : 8s3p3d contracted to 6s3p3d pattern {311111/111/111}
 Group   4 Type H   : 5s2p1d contracted to 3s1p1d pattern {311/2/1}

Atom   0C    basis set group =>   1
Atom   1C    basis set group =>   1
Atom   2O    basis set group =>   2
Atom   3C    basis set group =>   1
Atom   4C    basis set group =>   1
Atom   5N    basis set group =>   3
Atom   6H    basis set group =>   4
Atom   7H    basis set group =>   4
Atom   8H    basis set group =>   4
Atom   9H    basis set group =>   4
Atom  10H    basis set group =>   4
Atom  11H    basis set group =>   4
Atom  12H    basis set group =>   4
Atom  13H    basis set group =>   4
Atom  14H    basis set group =>   4
------------------------------------------------------------------------------
                             ORCA STARTUP CALCULATIONS
                           -- RI-GTO INTEGRALS CHOSEN --
------------------------------------------------------------------------------
------------------------------------------------------------------------------
                   ___                                                        
                  /   \      - P O W E R E D   B Y -                         
                 /     \                                                     
                 |  |  |   _    _      __       _____    __    __             
                 |  |  |  | |  | |    /  \     |  _  \  |  |  /  |          
                  \  \/   | |  | |   /    \    | | | |  |  | /  /          
                 / \  \   | |__| |  /  /\  \   | |_| |  |  |/  /          
                |  |  |   |  __  | /  /__\  \  |    /   |      \           
                |  |  |   | |  | | |   __   |  |    \   |  |\   \          
                \     /   | |  | | |  |  |  |  | |\  \  |  | \   \       
                 \___/    |_|  |_| |__|  |__|  |_| \__\ |__|  \__/        
                                                                              
                      - O R C A' S   B I G   F R I E N D -                    
                                      &                                       
                       - I N T E G R A L  F E E D E R -                       
                                                                              
 v1 FN, 2020, v2 2021, v3 2022-2024                                           
------------------------------------------------------------------------------


----------------------
SHARK INTEGRAL PACKAGE
----------------------

Number of atoms                             ...     15
Number of basis functions                   ...    240
Number of shells                            ...    102
Maximum angular momentum                    ...      3
Integral batch strategy                     ... SHARK/LIBINT Hybrid
RI-J (if used) integral strategy            ... SPLIT-RIJ (Revised 2003 algorithm where possible)
Printlevel                                  ...      1
Contraction scheme used                     ... SEGMENTED contraction
Prescreening option                         ... SCHWARTZ
   Thresh                                   ... 1.000e-10
   Tcut                                     ... 1.000e-11
   Tpresel                                  ... 1.000e-11 
Coulomb Range Separation                    ... NOT USED
Exchange Range Separation                   ... NOT USED
Multipole approximations                    ... NOT USED
Finite Nucleus Model                        ... NOT USED
CABS basis                                  ... NOT available
Auxiliary Coulomb fitting basis             ... AVAILABLE
   # of basis functions in Aux-J            ...    279
   # of shells in Aux-J                     ...    117
   Maximum angular momentum in Aux-J        ...      2
Auxiliary J/K fitting basis                 ... NOT available
Auxiliary Correlation fitting basis         ... NOT available
Auxiliary 'external' fitting basis          ... NOT available

Checking pre-screening integrals            ... done (  0.0 sec) Dimension = 102
Check shell pair data                       ... done (  0.0 sec)
Shell pair information
Shell pair cut-off parameter TPreSel        ...   1.0e-11
Total number of shell pairs                 ...      5253
Shell pairs after pre-screening             ...      5058
Total number of primitive shell pairs       ...     15384
Primitive shell pairs kept                  ...     11660
          la=0 lb=0:   1540 shell pairs
          la=1 lb=0:   1482 shell pairs
          la=1 lb=1:    376 shell pairs
          la=2 lb=0:    665 shell pairs
          la=2 lb=1:    324 shell pairs
          la=2 lb=2:     78 shell pairs
          la=3 lb=0:    338 shell pairs
          la=3 lb=1:    162 shell pairs
          la=3 lb=2:     72 shell pairs
          la=3 lb=3:     21 shell pairs

Calculating one electron integrals          ... done (  0.0 sec)
Calculating RI/J V-Matrix + Cholesky decomp.... done (  0.0 sec)
Calculating Nuclear repulsion               ... done (  0.0 sec) ENN=    262.974186832343 Eh

Diagonalization of the overlap matrix:
Smallest eigenvalue                        ... 1.201e-04
Time for diagonalization                   ...    0.006 sec
Threshold for overlap eigenvalues          ... 1.000e-07
Number of eigenvalues below threshold      ... 0
Time for construction of square roots      ...    0.016 sec
Total time needed                          ...    0.030 sec

-------------------
DFT GRID GENERATION
-------------------

General Integration Accuracy     IntAcc      ... 4.388
Radial Grid Type                 RadialGrid  ... OptM3 with GC (2021)
Angular Grid (max. ang.)         AngularGrid ... 4 (Lebedev-302)
Angular grid pruning method      GridPruning ... 4 (adaptive)
Weight generation scheme         WeightScheme... mBecke (2022)
Basis function cutoff            BFCut       ... 1.0000e-10
Integration weight cutoff        WCut        ... 1.0000e-14
Partially contracted basis set               ... off
Rotationally invariant grid construction     ... off
Angular grids for H and He will be reduced by one unit

Total number of grid points                  ...    64972
Total number of batches                      ...     1025
Average number of points per batch           ...       63
Average number of grid points per atom       ...     4331
Initializing property integral containers    ... done (  0.0 sec)

SHARK setup successfully completed in   1.0 seconds

Maximum memory used throughout the entire STARTUP-calculation: 34.6 MB
-------------------------------------------------------------------------------
                                 ORCA GUESS
                   Start orbitals & Density for SCF / CASSCF
-------------------------------------------------------------------------------

------------
SCF SETTINGS
------------
Hamiltonian:
 Density Functional     Method          .... DFT(GTOs)
  Functional kind                       .... Exchange
  Functional name                       .... Re-regularized SCAN exchange by Furness et al
  Functional family                     .... MGGA
  Functional refs                              
    [ 0] J. W. Furness, A. D. Kaplan, J. Ning, J. P. Perdew, and J. Sun.,  J. Phys. Chem. Lett. 11, 8208-8215 (2020), doi: 10.1021/acs.jpclett.0c02405
    [ 1] J. W. Furness, A. D. Kaplan, J. Ning, J. P. Perdew, and J. Sun.,  J. Phys. Chem. Lett. 11, 9248-9248 (2020), doi: 10.1021/acs.jpclett.0c03077
  Functional external parameters        .... 6
    Parameter  0 _c1        =  6.670000e-01 : c1 parameter        
    Parameter  1 _c2        =  8.000000e-01 : c2 parameter        
    Parameter  2 _d         =  1.240000e+00 : d parameter         
    Parameter  3 _k1        =  6.500000e-02 : k1 parameter        
    Parameter  4 _eta       =  1.000000e-03 : eta parameter       
    Parameter  5 _dp2       =  3.610000e-01 : dp2 parameter       
  Functional kind                       .... Correlation
  Functional name                       .... Re-regularized SCAN correlation by Furness et al
  Functional family                     .... MGGA
  Functional refs                              
    [ 0] J. W. Furness, A. D. Kaplan, J. Ning, J. P. Perdew, and J. Sun.,  J. Phys. Chem. Lett. 11, 8208-8215 (2020), doi: 10.1021/acs.jpclett.0c02405
    [ 1] J. W. Furness, A. D. Kaplan, J. Ning, J. P. Perdew, and J. Sun.,  J. Phys. Chem. Lett. 11, 9248-9248 (2020), doi: 10.1021/acs.jpclett.0c03077
  Functional external parameters        .... 1
    Parameter  0 _eta       =  1.000000e-03 : Regularization parameter
 Gradients option       PostSCFGGA      .... off
 RI-approximation to the Coulomb term is turned on
   Number of AuxJ basis functions       .... 279


General Settings:
 Integral files         IntName         .... vacuum_censo
 Hartree-Fock type      HFTyp           .... RHF
 Total Charge           Charge          ....    0
 Multiplicity           Mult            ....    1
 Number of Electrons    NEL             ....   48
 Basis Dimension        Dim             ....  240
 Nuclear Repulsion      ENuc            ....    262.9741868323 Eh

Convergence Acceleration:
 AO-DIIS                CNVDIIS         .... on
   Start iteration      DIISMaxIt       ....    12
   Startup error        DIISStart       ....  0.200000
   # of expansion vecs  DIISMaxEq       ....     5
   Bias factor          DIISBfac        ....   1.050
   Max. coefficient     DIISMaxC        ....  10.000
 MO-DIIS                CNVKDIIS        .... off
 Trust-Rad. Augm. Hess. CNVTRAH         .... auto
   Auto Start mean grad. ratio tolernc. ....  1.125000
   Auto Start start iteration           ....    50
   Auto Start num. interpolation iter.  ....    10
   Max. Number of Micro iterations      ....    24
   Max. Number of Macro iterations      .... Maxiter - #DIIS iter
   Number of Davidson start vectors     ....     2
   Converg. threshold    (grad. norm)   ....   5.000e-05
   Grad. Scal. Fac. for Micro threshold ....   0.100
   Minimum threshold for Micro iter.    ....   1.000e-02
   NR start threshold (gradient norm)   ....   1.000e-04
   Initial trust radius                 ....   0.400
   Minimum AH scaling param. (alpha)    ....   1.000
   Maximum AH scaling param. (alpha)    .... 1000.000
   Quad. conv. algorithm                .... NR
   White noise on init. David. guess    .... on
   Maximum white noise                  ....   0.010
   Pseudo random numbers                .... off
   Inactive MOs                         .... canonical
   Orbital update algorithm             .... Taylor
   Preconditioner                       .... Diag
   Full preconditioner red. dimension   ....   250
   COSX micro iterations for RIJONX calc.... off
 SOSCF                  CNVSOSCF        .... on
   Start iteration      SOSCFMaxIt      ....   150
   Startup grad/error   SOSCFStart      ....  0.003300
   Hessian update       SOSCFHessUp     .... L-BFGS
 Level Shifting         CNVShift        .... on
   Level shift para.    LevelShift      ....    0.2500
   Turn off err/grad.   ShiftErr        ....    0.0010
 Zerner damping         CNVZerner       .... off
 Static damping         CNVDamp         .... on
   Fraction old density DampFac         ....    0.7000
   Max. Damping (<1)    DampMax         ....    0.9800
   Min. Damping (>=0)   DampMin         ....    0.0000
   Turn off err/grad.   DampErr         ....    0.1000

SCF Procedure:
 Maximum # iterations   MaxIter         ....   125
 SCF integral mode      SCFMode         .... Direct
   Integral package                     .... SHARK and LIBINT hybrid scheme
 Reset frequency        DirectResetFreq ....    20
 Integral Threshold     Thresh          ....  1.000e-10 Eh
 Primitive CutOff       TCut            ....  1.000e-11 Eh

Convergence Tolerance:
 Convergence Check Mode ConvCheckMode   .... Total+1el-Energy
 Convergence forced     ConvForced      .... 0
 Energy Change          TolE            ....  1.000e-06 Eh
 1-El. energy change                    ....  1.000e-03 Eh
 Orbital Gradient       TolG            ....  5.000e-05
 Orbital Rotation angle TolX            ....  5.000e-05
 DIIS Error             TolErr          ....  1.000e-06

------------------------------
INITIAL GUESS: MODEL POTENTIAL
------------------------------
Loading Hartree-Fock densities                     ... done
Calculating cut-offs                               ... done
Initializing the effective Hamiltonian             ... done
Setting up the integral package (SHARK)            ... done
Starting the Coulomb interaction                   ... done (   0.2 sec)
Making the grid                                    ... done (   0.2 sec)
Mapping shells                                     ... done
Starting the XC term evaluation                    ... done (   0.3 sec)
  promolecular density results
     # of electrons  =     47.989736229
     EX              =    -37.815482676
     EC              =     -1.596632501
     EX+EC           =    -39.412115177
Transforming the Hamiltonian                       ... done (   0.0 sec)
Diagonalizing the Hamiltonian                      ... done (   0.0 sec)
Back transforming the eigenvectors                 ... done (   0.0 sec)
Now organizing SCF variables                       ... done
                      ------------------
                      INITIAL GUESS DONE (   0.8 sec)
                      ------------------
             **** ENERGY FILE WAS UPDATED (vacuum_censo.en.tmp) ****
Finished Guess after   1.0 sec
Maximum memory used throughout the entire GUESS-calculation: 21.3 MB

-------------------------------------------------------------------------------------------
                                      ORCA LEAN-SCF
                              memory conserving SCF solver
-------------------------------------------------------------------------------------------

----------------------------------------D-I-I-S--------------------------------------------
Iteration    Energy (Eh)           Delta-E    RMSDP     MaxDP     DIISErr   Damp  Time(sec)
-------------------------------------------------------------------------------------------
               ***  Starting incremental Fock matrix formation  ***
    1    -287.5884317830544887     0.00e+00  1.67e-03  4.54e-02  2.10e-01  0.700   3.0
    2    -287.6643184141659049    -7.59e-02  1.28e-03  2.98e-02  9.27e-02  0.700   2.8
                               ***Turning on AO-DIIS***
    3    -287.6917949834710271    -2.75e-02  5.16e-04  9.27e-03  2.38e-02  0.700   2.7
    4    -287.7086484354052800    -1.69e-02  8.20e-04  1.39e-02  1.33e-02  0.000   2.6
    5    -287.7466440230477929    -3.80e-02  2.46e-04  4.95e-03  7.85e-03  0.000   2.7
                              *** Initializing SOSCF ***
---------------------------------------S-O-S-C-F--------------------------------------
Iteration    Energy (Eh)           Delta-E    RMSDP     MaxDP     MaxGrad    Time(sec)
--------------------------------------------------------------------------------------
    6    -287.7469521952721152    -3.08e-04  1.02e-04  2.25e-03  2.21e-03     2.5
               *** Restarting incremental Fock matrix formation ***
    7    -287.7469853021979134    -3.31e-05  8.72e-05  1.58e-03  2.78e-04     3.0
    8    -287.7469785841809653     6.72e-06  2.66e-05  8.65e-04  5.62e-04     2.4
    9    -287.7469900089946577    -1.14e-05  5.35e-06  1.15e-04  1.87e-05     2.3
   10    -287.7469900185126335    -9.52e-09  1.67e-06  4.28e-05  1.83e-05     2.3
                 **** Energy Check signals convergence ****

               *****************************************************
               *                     SUCCESS                       *
               *           SCF CONVERGED AFTER  10 CYCLES          *
               *****************************************************

             **** ENERGY FILE WAS UPDATED (vacuum_censo.en.tmp) ****

----------------
TOTAL SCF ENERGY
----------------

Total Energy       :       -287.74699001851263 Eh           -7829.99367 eV

Components:
Nuclear Repulsion  :        262.97418683234309 Eh            7155.89142 eV
Electronic Energy  :       -550.72117685085573 Eh          -14985.88509 eV
One Electron Energy:       -911.00847255618396 Eh          -24789.80083 eV
Two Electron Energy:        360.28729570532823 Eh            9803.91574 eV

Virial components:
Potential Energy   :       -574.10192852509476 Eh          -15622.10769 eV
Kinetic Energy     :        286.35493850658213 Eh            7792.11402 eV
Virial Ratio       :          2.00486127991782

DFT components:
N(Alpha)           :       24.000009215171 electrons
N(Beta)            :       24.000009215171 electrons
N(Total)           :       48.000018430343 electrons
E(X)               :      -38.945549885026 Eh       
E(C)               :       -1.537827924238 Eh       
E(XC)              :      -40.483377809264 Eh       

---------------
SCF CONVERGENCE
---------------

  Last Energy change         ...    9.5180e-09  Tolerance :   1.0000e-06
  Last MAX-Density change    ...    4.2829e-05  Tolerance :   1.0000e-05
  Last RMS-Density change    ...    1.6743e-06  Tolerance :   1.0000e-06
  Last DIIS Error            ...    2.2126e-03  Tolerance :   1.0000e-06
  Last Orbital Gradient      ...    1.8282e-05  Tolerance :   5.0000e-05
  Last Orbital Rotation      ...    2.3215e-05  Tolerance :   5.0000e-05


----------------
ORBITAL ENERGIES
----------------

  NO   OCC          E(Eh)            E(eV) 
   0   2.0000     -18.951748      -515.7033 
   1   2.0000     -14.151773      -385.0893 
   2   2.0000     -10.073031      -274.1011 
   3   2.0000     -10.073024      -274.1009 
   4   2.0000     -10.055699      -273.6295 
   5   2.0000     -10.055695      -273.6294 
   6   2.0000      -0.994440       -27.0601 
   7   2.0000      -0.870087       -23.6763 
   8   2.0000      -0.733925       -19.9711 
   9   2.0000      -0.650686       -17.7061 
  10   2.0000      -0.611446       -16.6383 
  11   2.0000      -0.532508       -14.4903 
  12   2.0000      -0.489532       -13.3208 
  13   2.0000      -0.439624       -11.9628 
  14   2.0000      -0.429115       -11.6768 
  15   2.0000      -0.417092       -11.3497 
  16   2.0000      -0.395230       -10.7548 
  17   2.0000      -0.380408       -10.3514 
  18   2.0000      -0.361151        -9.8274 
  19   2.0000      -0.324006        -8.8167 
  20   2.0000      -0.319648        -8.6981 
  21   2.0000      -0.275146        -7.4871 
  22   2.0000      -0.224938        -6.1209 
  23   2.0000      -0.202273        -5.5041 
  24   0.0000       0.039458         1.0737 
  25   0.0000       0.066483         1.8091 
  26   0.0000       0.074388         2.0242 
  27   0.0000       0.082200         2.2368 
  28   0.0000       0.100993         2.7482 
  29   0.0000       0.120701         3.2844 
  30   0.0000       0.121945         3.3183 
  31   0.0000       0.123824         3.3694 
  32   0.0000       0.126876         3.4525 
  33   0.0000       0.136803         3.7226 
  34   0.0000       0.146395         3.9836 
*Only the first 10 virtual orbitals were printed.

                    ********************************
                    * MULLIKEN POPULATION ANALYSIS *
                    ********************************

-----------------------
MULLIKEN ATOMIC CHARGES
-----------------------
   0 C :   -0.073117
   1 C :    0.002661
   2 O :   -0.328606
   3 C :    0.002657
   4 C :   -0.073120
   5 N :   -0.342744
   6 H :    0.066339
   7 H :    0.089899
   8 H :    0.093666
   9 H :    0.063634
  10 H :    0.093665
  11 H :    0.063637
  12 H :    0.066341
  13 H :    0.089899
  14 H :    0.185189
Sum of atomic charges:   -0.0000000

--------------------------------
MULLIKEN REDUCED ORBITAL CHARGES
--------------------------------
  0 C s       :     3.194651  s :     3.194651
      pz      :     0.975305  p :     2.764513
      px      :     0.907459
      py      :     0.881749
      dz2     :     0.028951  d :     0.105441
      dxz     :     0.016745
      dyz     :     0.016604
      dx2y2   :     0.017958
      dxy     :     0.025184
      f0      :     0.001600  f :     0.008512
      f+1     :     0.000895
      f-1     :     0.000877
      f+2     :     0.000857
      f-2     :     0.000842
      f+3     :     0.001766
      f-3     :     0.001675

  1 C s       :     3.197935  s :     3.197935
      pz      :     0.971504  p :     2.668056
      px      :     0.885382
      py      :     0.811170
      dz2     :     0.027620  d :     0.121032
      dxz     :     0.015883
      dyz     :     0.020321
      dx2y2   :     0.021860
      dxy     :     0.035348
      f0      :     0.001660  f :     0.010315
      f+1     :     0.000977
      f-1     :     0.001117
      f+2     :     0.001225
      f-2     :     0.001033
      f+3     :     0.001975
      f-3     :     0.002328

  2 O s       :     3.805593  s :     3.805593
      pz      :     1.703234  p :     4.479386
      px      :     1.603892
      py      :     1.172261
      dz2     :     0.005146  d :     0.041621
      dxz     :     0.004663
      dyz     :     0.009642
      dx2y2   :     0.007840
      dxy     :     0.014330
      f0      :     0.000247  f :     0.002005
      f+1     :     0.000124
      f-1     :     0.000342
      f+2     :     0.000162
      f-2     :     0.000362
      f+3     :     0.000408
      f-3     :     0.000359

  3 C s       :     3.197941  s :     3.197941
      pz      :     0.971499  p :     2.668055
      px      :     0.885247
      py      :     0.811309
      dz2     :     0.027621  d :     0.121032
      dxz     :     0.015892
      dyz     :     0.020311
      dx2y2   :     0.021875
      dxy     :     0.035333
      f0      :     0.001660  f :     0.010315
      f+1     :     0.000977
      f-1     :     0.001117
      f+2     :     0.001225
      f-2     :     0.001033
      f+3     :     0.001975
      f-3     :     0.002329

  4 C s       :     3.194655  s :     3.194655
      pz      :     0.975312  p :     2.764513
      px      :     0.907551
      py      :     0.881650
      dz2     :     0.028948  d :     0.105441
      dxz     :     0.016735
      dyz     :     0.016615
      dx2y2   :     0.017947
      dxy     :     0.025195
      f0      :     0.001600  f :     0.008512
      f+1     :     0.000895
      f-1     :     0.000877
      f+2     :     0.000858
      f-2     :     0.000842
      f+3     :     0.001766
      f-3     :     0.001675

  5 N s       :     3.535605  s :     3.535605
      pz      :     1.628890  p :     3.742015
      px      :     1.062015
      py      :     1.051109
      dz2     :     0.006823  d :     0.061568
      dxz     :     0.007815
      dyz     :     0.015880
      dx2y2   :     0.018487
      dxy     :     0.012562
      f0      :     0.000607  f :     0.003557
      f+1     :     0.000302
      f-1     :     0.000635
      f+2     :     0.000329
      f-2     :     0.000381
      f+3     :     0.000691
      f-3     :     0.000613

  6 H s       :     0.911369  s :     0.911369
      pz      :     0.013096  p :     0.022292
      px      :     0.004774
      py      :     0.004421

  7 H s       :     0.887427  s :     0.887427
      pz      :     0.005693  p :     0.022674
      px      :     0.006692
      py      :     0.010289

  8 H s       :     0.884155  s :     0.884155
      pz      :     0.005633  p :     0.022179
      px      :     0.007017
      py      :     0.009529

  9 H s       :     0.914327  s :     0.914327
      pz      :     0.013631  p :     0.022039
      px      :     0.004589
      py      :     0.003819

 10 H s       :     0.884156  s :     0.884156
      pz      :     0.005633  p :     0.022179
      px      :     0.007012
      py      :     0.009534

 11 H s       :     0.914324  s :     0.914324
      pz      :     0.013631  p :     0.022039
      px      :     0.004589
      py      :     0.003819

 12 H s       :     0.911368  s :     0.911368
      pz      :     0.013096  p :     0.022292
      px      :     0.004774
      py      :     0.004421

 13 H s       :     0.887427  s :     0.887427
      pz      :     0.005693  p :     0.022674
      px      :     0.006695
      py      :     0.010286

 14 H s       :     0.775576  s :     0.775576
      pz      :     0.013456  p :     0.039235
      px      :     0.018699
      py      :     0.007080



                     *******************************
                     * LOEWDIN POPULATION ANALYSIS *
                     *******************************

----------------------
LOEWDIN ATOMIC CHARGES
----------------------
   0 C :   -0.314260
   1 C :   -0.315776
   2 O :    0.141991
   3 C :   -0.315776
   4 C :   -0.314260
   5 N :   -0.024549
   6 H :    0.115842
   7 H :    0.129983
   8 H :    0.126290
   9 H :    0.118445
  10 H :    0.126290
  11 H :    0.118444
  12 H :    0.115841
  13 H :    0.129983
  14 H :    0.161511

-------------------------------
LOEWDIN REDUCED ORBITAL CHARGES
-------------------------------
  0 C s       :     2.804004  s :     2.804004
      pz      :     1.023594  p :     2.979715
      px      :     1.017200
      py      :     0.938920
      dz2     :     0.123195  d :     0.477226
      dxz     :     0.072203
      dyz     :     0.075540
      dx2y2   :     0.098429
      dxy     :     0.107859
      f0      :     0.006393  f :     0.053315
      f+1     :     0.005310
      f-1     :     0.005006
      f+2     :     0.008889
      f-2     :     0.009210
      f+3     :     0.009013
      f-3     :     0.009494

  1 C s       :     2.813775  s :     2.813775
      pz      :     1.026285  p :     2.906216
      px      :     1.001655
      py      :     0.878276
      dz2     :     0.127025  d :     0.526854
      dxz     :     0.070359
      dyz     :     0.077308
      dx2y2   :     0.106526
      dxy     :     0.145636
      f0      :     0.007569  f :     0.068930
      f+1     :     0.005746
      f-1     :     0.006729
      f+2     :     0.010932
      f-2     :     0.012158
      f+3     :     0.012331
      f-3     :     0.013466

  2 O s       :     3.305057  s :     3.305057
      pz      :     1.641314  p :     4.440944
      px      :     1.561542
      py      :     1.238087
      dz2     :     0.014056  d :     0.105582
      dxz     :     0.007449
      dyz     :     0.024883
      dx2y2   :     0.026885
      dxy     :     0.032309
      f0      :     0.000420  f :     0.006426
      f+1     :     0.000380
      f-1     :     0.001003
      f+2     :     0.000578
      f-2     :     0.001405
      f+3     :     0.001110
      f-3     :     0.001531

  3 C s       :     2.813775  s :     2.813775
      pz      :     1.026281  p :     2.906216
      px      :     1.001574
      py      :     0.878361
      dz2     :     0.127028  d :     0.526854
      dxz     :     0.070391
      dyz     :     0.077274
      dx2y2   :     0.106575
      dxy     :     0.145586
      f0      :     0.007568  f :     0.068930
      f+1     :     0.005749
      f-1     :     0.006725
      f+2     :     0.010927
      f-2     :     0.012164
      f+3     :     0.012328
      f-3     :     0.013468

  4 C s       :     2.804004  s :     2.804004
      pz      :     1.023598  p :     2.979715
      px      :     1.017247
      py      :     0.938870
      dz2     :     0.123187  d :     0.477226
      dxz     :     0.072168
      dyz     :     0.075582
      dx2y2   :     0.098396
      dxy     :     0.107893
      f0      :     0.006393  f :     0.053315
      f+1     :     0.005307
      f-1     :     0.005008
      f+2     :     0.008894
      f-2     :     0.009206
      f+3     :     0.009012
      f-3     :     0.009495

  5 N s       :     3.024079  s :     3.024079
      pz      :     1.541691  p :     3.771400
      px      :     1.104297
      py      :     1.125412
      dz2     :     0.026258  d :     0.213758
      dxz     :     0.020296
      dyz     :     0.043895
      dx2y2   :     0.075278
      dxy     :     0.048030
      f0      :     0.000835  f :     0.015312
      f+1     :     0.000890
      f-1     :     0.002255
      f+2     :     0.002784
      f-2     :     0.002956
      f+3     :     0.002518
      f-3     :     0.003075

  6 H s       :     0.823828  s :     0.823828
      pz      :     0.036330  p :     0.060331
      px      :     0.012689
      py      :     0.011311

  7 H s       :     0.810433  s :     0.810433
      pz      :     0.016194  p :     0.059584
      px      :     0.017184
      py      :     0.026205

  8 H s       :     0.814858  s :     0.814858
      pz      :     0.016298  p :     0.058853
      px      :     0.018024
      py      :     0.024531

  9 H s       :     0.821688  s :     0.821688
      pz      :     0.037731  p :     0.059867
      px      :     0.011956
      py      :     0.010180

 10 H s       :     0.814858  s :     0.814858
      pz      :     0.016297  p :     0.058853
      px      :     0.018013
      py      :     0.024542

 11 H s       :     0.821688  s :     0.821688
      pz      :     0.037731  p :     0.059867
      px      :     0.011954
      py      :     0.010182

 12 H s       :     0.823828  s :     0.823828
      pz      :     0.036330  p :     0.060331
      px      :     0.012690
      py      :     0.011311

 13 H s       :     0.810433  s :     0.810433
      pz      :     0.016195  p :     0.059584
      px      :     0.017192
      py      :     0.026196

 14 H s       :     0.729066  s :     0.729066
      pz      :     0.040788  p :     0.109423
      px      :     0.049908
      py      :     0.018727



                      *****************************
                      * MAYER POPULATION ANALYSIS *
                      *****************************

  NA   - Mulliken gross atomic population
  ZA   - Total nuclear charge
  QA   - Mulliken gross atomic charge
  VA   - Mayer's total valence
  BVA  - Mayer's bonded valence
  FA   - Mayer's free valence

  ATOM       NA         ZA         QA         VA         BVA        FA
  0 C      6.0731     6.0000    -0.0731     3.9397     3.9397     0.0000
  1 C      5.9973     6.0000     0.0027     3.9799     3.9799    -0.0000
  2 O      8.3286     8.0000    -0.3286     1.9844     1.9844    -0.0000
  3 C      5.9973     6.0000     0.0027     3.9799     3.9799     0.0000
  4 C      6.0731     6.0000    -0.0731     3.9397     3.9397    -0.0000
  5 N      7.3427     7.0000    -0.3427     2.9268     2.9268    -0.0000
  6 H      0.9337     1.0000     0.0663     0.9869     0.9869    -0.0000
  7 H      0.9101     1.0000     0.0899     0.9809     0.9809     0.0000
  8 H      0.9063     1.0000     0.0937     0.9732     0.9732    -0.0000
  9 H      0.9364     1.0000     0.0636     0.9964     0.9964    -0.0000
 10 H      0.9063     1.0000     0.0937     0.9732     0.9732     0.0000
 11 H      0.9364     1.0000     0.0636     0.9964     0.9964     0.0000
 12 H      0.9337     1.0000     0.0663     0.9869     0.9869    -0.0000
 13 H      0.9101     1.0000     0.0899     0.9809     0.9809    -0.0000
 14 H      0.8148     1.0000     0.1852     0.9578     0.9578    -0.0000

  Mayer bond orders larger than 0.100000
B(  0-C ,  1-C ) :   1.0010 B(  0-C ,  5-N ) :   0.9879 B(  0-C ,  6-H ) :   0.9519 
B(  0-C ,  7-H ) :   0.9500 B(  1-C ,  2-O ) :   0.9829 B(  1-C ,  8-H ) :   0.9608 
B(  1-C ,  9-H ) :   0.9597 B(  2-O ,  3-C ) :   0.9829 B(  3-C ,  4-C ) :   1.0010 
B(  3-C , 10-H ) :   0.9608 B(  3-C , 11-H ) :   0.9597 B(  4-C ,  5-N ) :   0.9879 
B(  4-C , 12-H ) :   0.9519 B(  4-C , 13-H ) :   0.9500 B(  5-N , 14-H ) :   0.9333 


-------
TIMINGS
-------

Total SCF time: 0 days 0 hours 0 min 26 sec 

Total time                  ....      26.747 sec
Sum of individual times     ....      26.210 sec  ( 98.0%)

SCF preparation             ....       0.198 sec  (  0.7%)
Fock matrix formation       ....      25.130 sec  ( 94.0%)
  Startup                   ....       0.063 sec  (  0.3% of F)
  Split-RI-J                ....       2.586 sec  ( 10.3% of F)
  XC integration            ....      21.922 sec  ( 87.2% of F)
    XC Preparation          ....       0.000 sec  (  0.0% of XC)
    Basis function eval.    ....       3.440 sec  ( 15.7% of XC)
    Density eval.           ....       6.804 sec  ( 31.0% of XC)
    XC-Functional eval.     ....       1.898 sec  (  8.7% of XC)
    XC-Potential eval.      ....       8.738 sec  ( 39.9% of XC)
Diagonalization             ....       0.000 sec  (  0.0%)
Density matrix formation    ....       0.226 sec  (  0.8%)
Total Energy calculation    ....       0.037 sec  (  0.1%)
Population analysis         ....       0.034 sec  (  0.1%)
Orbital Transformation      ....       0.066 sec  (  0.2%)
Orbital Orthonormalization  ....       0.000 sec  (  0.0%)
DIIS solution               ....       0.339 sec  (  1.3%)
SOSCF solution              ....       0.181 sec  (  0.7%)
Finished LeanSCF after  26.9 sec

Maximum memory used throughout the entire LEANSCF-calculation: 25.4 MB

------------------------------------------------------------------------------
                         ORCA PROPERTY INTEGRAL CALCULATIONS
------------------------------------------------------------------------------

GBWName                                   ... vacuum_censo.gbw
Number of atoms                           ...     15
Number of basis functions                 ...    240
Max core memory                           ...   1024 MB

Dipole integrals                          ... YES
Quadrupole integrals                      ...  NO
Linear momentum integrals                 ...  NO
Angular momentum integrals                ...  NO
Higher moments length integrals           ...  NO
Higher moments velocity integrals         ...  NO
Kinetic energy integrals                  ...  NO
GIAO right hand sides                     ...  NO
GIAO dipole derivative integrals          ...  NO
SOC integrals                             ...  NO
EPR diamagnetic integrals (GIAO)          ...  NO
EPR gauge integrals                       ...  NO
Field gradient integrals                  ...  NO (   0 nuclei)
Spin-dipole/Fermi contact integrals       ...  NO (   0 nuclei)
Contact density integrals                 ...  NO (   0 nuclei)
Nucleus-orbit integrals                   ...  NO (   0 nuclei)
Geometric perturbations                   ... YES (  15 nuclei)

Choice of electric origin   ... Center of mass
Position of electric origin ... ( -0.0046,  0.0000, -0.0022) 
Choice of magnetic origin   ... GIAO
Position of magnetic origin ... (  0.0000,  0.0000,  0.0000) 

Calculating integrals                     ... Electric Dipole (Length)     done (  0.1 sec)
Calculating integrals                     ... Geometrical perturbation right hand sides

-----------------------
GEOMETRIC PERTURBATIONS (15 nuclei)
-----------------------

MaxCore                            ...   1024 MB
Number of batches                  ...      1

BATCH   0: Atoms    0 -   14 ( 45 perturbations)
   => H(core) and overlap derivative integrals     ... done (     0.3 sec)
   => Making and storing internal U-coefficients   ... done (     0.3 sec)
   => RI-J derivative integrals                    ... done (     3.2 sec)
   => RI-J response operators                      ... done (     0.8 sec)
   => XC derivative integrals                      ... done (   251.9 sec)
   => XC response operators                        ... done (    63.3 sec)
   => Completing and storing right hand sides      ... done (     0.3 sec)
   => Total time for right hand sides = 322.6 sec

  geometrical perturbations done (322.6 sec)

Property integrals calculated in 322.7 sec

Maximum memory used throughout the entire PROPINT-calculation: 117.3 MB


-------------------------------------------------------------------------------
                          DFT DISPERSION CORRECTION                            
                                                                               
                                DFTD4 V3.4.0                                   
-------------------------------------------------------------------------------
The R2SCAN3C composite method is recognized
Using three-body term ABC
Active option DFTDOPT                   ...         5   

-------------------------   ----------------
Dispersion correction           -0.003702687
-------------------------   ----------------

------------------   -----------------
gCP correction             0.013186221
------------------   -----------------

-------------------------   --------------------
FINAL SINGLE POINT ENERGY      -287.737506484532
-------------------------   --------------------

------------------------------------------------------------------------------
                            ORCA SCF RESPONSE CALCULATION
------------------------------------------------------------------------------

GBWName                                 ... vacuum_censo.gbw
Number of atoms                         ...     15
Number of basis functions               ...    240
Max core memory                         ...   1024 MB

Electric field perturbation             ...  NO
Quadrupolar field perturbation          ...  NO
Magnetic field perturbation (no GIAO)   ...  NO
Magnetic field perturbation (with GIAO) ...  NO
Linear momentum (velocity) perturbation ...  NO
Spin-orbit coupling perturbation        ...  NO
Choice of electric origin               ... Center of mass
Position of electric origin             ...    -0.004608     0.000032    -0.002198
Choice of magnetic origin               ... GIAO
Position of magnetic origin             ...     0.000000     0.000000     0.000000
Nuclear geometric perturbations         ... YES (  45 perturbations)
Nucleus-orbit perturbations             ...  NO (   0 perturbations)
Spin-dipole/Fermi contact perturbations ...  NO (   0 perturbations)

Total number of real perturbations      ...     45
Total number of imaginary perturbations ...      0
Total number of triplet perturbations   ...      0
Total number of SOC perturbations       ...      0


                                **********************
                                * REAL PERTURBATIONS *
                                **********************



-------------------
SHARK CP-SCF DRIVER
-------------------

Dimension of the orbital basis          ...    240
Dimension of the CPSCF-problem          ...   5184
Number of operators                     ...      1
Max. number of iterations               ...    128
Convergence Tolerance                   ... 1.0e-03
Number of perturbations                 ...     45
Perturbation type                       ... REAL

----------------------------
POPLE LINEAR EQUATION SOLVER
----------------------------

  ITERATION   0:   ||err||_max =   2.2315e-01 (  18.2 sec   0/ 45 done)
  ITERATION   1:   ||err||_max =   2.5133e-02 (  18.2 sec   0/ 45 done)
  ITERATION   2:   ||err||_max =   7.4275e-03 (  19.4 sec   5/ 45 done)
  ITERATION   3:   ||err||_max =   2.1013e-03 (  18.4 sec  22/ 45 done)
  ITERATION   4:   ||err||_max =   7.3418e-04 (  11.9 sec  45/ 45 done)

CP-SCF equations solved in  88.1 sec
Response densities calculated in   0.1 sec

Maximum memory used throughout the entire SCFRESP-calculation: 67.6 MB

------------------------------------------------------------------------------
                              ORCA PROPERTY CALCULATIONS
------------------------------------------------------------------------------

GBWName                                 ... vacuum_censo.gbw
Number of atoms                         ...     15
Number of basis functions               ...    240
Max core memory                         ...   1024 MB

Electric properties:
Dipole moment                           ... YES
Quadrupole moment                       ...  NO
Static polarizability (Dipole/Dipole)   ...  NO
Static polarizability (Dipole/Quad.)    ...  NO
Static polarizability (Quad./Quad.)     ...  NO
Static polarizability (Velocity)        ...  NO

Atomic electric properties:
Dipole moment                           ...  NO
Quadrupole moment                       ...  NO
Static polarizability                   ...  NO

Choice of electric origin               ... Center of mass
Position of electric origin             ...    -0.004608     0.000032    -0.002198

General magnetic properties:
Magnetizability                         ...  NO

EPR properties:
g-Tensor (aka g-matrix)                 ...  NO
Zero-Field splitting spin-orbit         ...  NO
Zero-field splitting spin-spin          ...  NO
Hyperfine couplings                     ...  NO (   0 nuclei)
Quadrupole couplings                    ...  NO (   0 nuclei)
Contact density                         ...  NO (   0 nuclei)

NMR properties:
Chemical shifts                         ...  NO (   0 nuclei)
Spin-rotation constants                 ...  NO (   0 nuclei)
Spin-spin couplings                     ...  NO (   0 nuclei,    0 pairs)

Choice of magnetic origin               ... GIAO
Position of magnetic origin             ...     0.000000     0.000000     0.000000

Properties with geometric perturbations:
SCF Hessian                             ... YES
IR spectrum                             ... YES
VCD spectrum                            ...  NO
X-ray spectroscopy properties:
SCF XES/XAS/RIXS spectra                ...  NO


-------------
DIPOLE MOMENT
-------------

Method             : SCF
Type of density    : Electron Density
Multiplicity       :   1
Irrep              :   0
Energy             :  -287.7469900185126335 Eh
Relativity type    : 
Basis              : AO
                                X                 Y                 Z
Electronic contribution:      1.506018154       0.000344108       0.063275005
Nuclear contribution   :     -2.098973664      -0.000483112       0.061589519
                        -----------------------------------------
Total Dipole Moment    :     -0.592955511      -0.000139003       0.124864524
                        -----------------------------------------
Magnitude (a.u.)       :      0.605959905
Magnitude (Debye)      :      1.540227674



--------------------
Rotational spectrum 
--------------------
 
Rotational constants in cm-1:             0.164021             0.153801             0.089344 
Rotational constants in MHz :          4917.211575          4610.836732          2678.466865 

Dipole components along the rotational axes: 
x,y,z [a.u.] :    -0.595029     0.000011     0.114578 
x,y,z [Debye]:    -1.512443     0.000028     0.291233 

 

Dipole moment calculation done in   0.0 sec 

-----------
SCF HESSIAN
-----------

Occupied/Occupied contributions to the Hessian:
   => Occupied/Occupied contributions              ... done (  0.0 sec)
Perturbed density contributions to the Hessian:
   => Perturbed density contributions              ... done (  0.0 sec)
Explicit contributions to the Hessian:
   => Nuclear repulsion Hessian                    ... done (  0.0 sec)
   => HCore and overlap Hessian                    ... done (  9.4 sec)
   => RI-J Hessian                                 ... done (  7.9 sec)
   => XC-Hessian                                   ... done ( 78.5 sec)
   => Van der Waals-Hessian                        ... done (  3.5 sec)
   => GCP-Hessian                                  ... done (  0.1 sec)
   => Explicit contributions done
Dipole derivatives                                 ... done (  0.1 sec)
Mass weighting the Hessian           ... done
Calculating normal modes             ... done
Scaling frequencies                  ... done

-----------------------
VIBRATIONAL FREQUENCIES
-----------------------

Scaling factor for frequencies =  1.000000000  (already applied!)

     0:       0.00 cm**-1
     1:       0.00 cm**-1
     2:       0.00 cm**-1
     3:       0.00 cm**-1
     4:       0.00 cm**-1
     5:       0.00 cm**-1
     6:     272.67 cm**-1
     7:     274.55 cm**-1
     8:     429.22 cm**-1
     9:     447.26 cm**-1
    10:     482.44 cm**-1
    11:     593.70 cm**-1
    12:     797.26 cm**-1
    13:     838.31 cm**-1
    14:     859.49 cm**-1
    15:     892.07 cm**-1
    16:     911.73 cm**-1
    17:    1036.54 cm**-1
    18:    1081.26 cm**-1
    19:    1083.10 cm**-1
    20:    1090.49 cm**-1
    21:    1136.34 cm**-1
    22:    1142.96 cm**-1
    23:    1218.63 cm**-1
    24:    1240.01 cm**-1
    25:    1296.00 cm**-1
    26:    1330.13 cm**-1
    27:    1335.83 cm**-1
    28:    1367.90 cm**-1
    29:    1399.43 cm**-1
    30:    1413.80 cm**-1
    31:    1470.54 cm**-1
    32:    1471.95 cm**-1
    33:    1480.91 cm**-1
    34:    1481.56 cm**-1
    35:    1487.78 cm**-1
    36:    2904.30 cm**-1
    37:    2908.56 cm**-1
    38:    2954.75 cm**-1
    39:    2958.84 cm**-1
    40:    3041.49 cm**-1
    41:    3041.70 cm**-1
    42:    3073.57 cm**-1
    43:    3075.31 cm**-1
    44:    3510.35 cm**-1


------------
NORMAL MODES
------------

These modes are the Cartesian displacements weighted by the diagonal matrix
M(i,i)=1/sqrt(m[i]) where m[i] is the mass of the displaced atom
Thus, these vectors are normalized but *not* orthogonal

                  0          1          2          3          4          5    
      0       0.000000   0.000000   0.000000   0.000000   0.000000   0.000000
      1       0.000000   0.000000   0.000000   0.000000   0.000000   0.000000
      2       0.000000   0.000000   0.000000   0.000000   0.000000   0.000000
      3       0.000000   0.000000   0.000000   0.000000   0.000000   0.000000
      4       0.000000   0.000000   0.000000   0.000000   0.000000   0.000000
      5       0.000000   0.000000   0.000000   0.000000   0.000000   0.000000
      6       0.000000   0.000000   0.000000   0.000000   0.000000   0.000000
      7       0.000000   0.000000   0.000000   0.000000   0.000000   0.000000
      8       0.000000   0.000000   0.000000   0.000000   0.000000   0.000000
      9       0.000000   0.000000   0.000000   0.000000   0.000000   0.000000
     10       0.000000   0.000000   0.000000   0.000000   0.000000   0.000000
     11       0.000000   0.000000   0.000000   0.000000   0.000000   0.000000
     12       0.000000   0.000000   0.000000   0.000000   0.000000   0.000000
     13       0.000000   0.000000   0.000000   0.000000   0.000000   0.000000
     14       0.000000   0.000000   0.000000   0.000000   0.000000   0.000000
     15       0.000000   0.000000   0.000000   0.000000   0.000000   0.000000
     16       0.000000   0.000000   0.000000   0.000000   0.000000   0.000000
     17       0.000000   0.000000   0.000000   0.000000   0.000000   0.000000
     18       0.000000   0.000000   0.000000   0.000000   0.000000   0.000000
     19       0.000000   0.000000   0.000000   0.000000   0.000000   0.000000
     20       0.000000   0.000000   0.000000   0.000000   0.000000   0.000000
     21       0.000000   0.000000   0.000000   0.000000   0.000000   0.000000
     22       0.000000   0.000000   0.000000   0.000000   0.000000   0.000000
     23       0.000000   0.000000   0.000000   0.000000   0.000000   0.000000
     24       0.000000   0.000000   0.000000   0.000000   0.000000   0.000000
     25       0.000000   0.000000   0.000000   0.000000   0.000000   0.000000
     26       0.000000   0.000000   0.000000   0.000000   0.000000   0.000000
     27       0.000000   0.000000   0.000000   0.000000   0.000000   0.000000
     28       0.000000   0.000000   0.000000   0.000000   0.000000   0.000000
     29       0.000000   0.000000   0.000000   0.000000   0.000000   0.000000
     30       0.000000   0.000000   0.000000   0.000000   0.000000   0.000000
     31       0.000000   0.000000   0.000000   0.000000   0.000000   0.000000
     32       0.000000   0.000000   0.000000   0.000000   0.000000   0.000000
     33       0.000000   0.000000   0.000000   0.000000   0.000000   0.000000
     34       0.000000   0.000000   0.000000   0.000000   0.000000   0.000000
     35       0.000000   0.000000   0.000000   0.000000   0.000000   0.000000
     36       0.000000   0.000000   0.000000   0.000000   0.000000   0.000000
     37       0.000000   0.000000   0.000000   0.000000   0.000000   0.000000
     38       0.000000   0.000000   0.000000   0.000000   0.000000   0.000000
     39       0.000000   0.000000   0.000000   0.000000   0.000000   0.000000
     40       0.000000   0.000000   0.000000   0.000000   0.000000   0.000000
     41       0.000000   0.000000   0.000000   0.000000   0.000000   0.000000
     42       0.000000   0.000000   0.000000   0.000000   0.000000   0.000000
     43       0.000000   0.000000   0.000000   0.000000   0.000000   0.000000
     44       0.000000   0.000000   0.000000   0.000000   0.000000   0.000000
                  6          7          8          9         10         11    
      0       0.046094   0.028532  -0.017385  -0.059581   0.136049  -0.049904
      1       0.021792  -0.066199  -0.100248   0.084404   0.121945  -0.030910
      2       0.111457  -0.090657  -0.044774  -0.082512  -0.058836   0.040240
      3      -0.043460   0.025551   0.009693   0.050658   0.131292  -0.036250
      4       0.016930   0.054126  -0.095016   0.081786  -0.119322   0.060267
      5      -0.115864  -0.083192   0.056375   0.078284  -0.049755   0.025230
      6       0.000031  -0.065315  -0.042736   0.288903   0.000022   0.116481
      7      -0.051630  -0.000031  -0.000012   0.000070  -0.086643   0.000028
      8      -0.000046   0.181192  -0.111264  -0.067541   0.000006  -0.024019
      9       0.043439   0.025608   0.009640   0.050695  -0.131234  -0.036218
     10       0.016982  -0.054102   0.095018  -0.081760  -0.119389  -0.060283
     11       0.115909  -0.083110   0.056369   0.078282   0.049755   0.025232
     12      -0.046120   0.028468  -0.017437  -0.059538  -0.136110  -0.049920
     13       0.021734   0.066223   0.100241  -0.084435   0.121877   0.030886
     14      -0.111417  -0.090738  -0.044772  -0.082503   0.058833   0.040239
     15       0.000024  -0.049828   0.063563  -0.304089  -0.000025   0.084836
     16      -0.052003  -0.000027   0.000021  -0.000073   0.099920   0.000021
     17      -0.000038   0.167127   0.105923   0.045136  -0.000003   0.010168
     18       0.236992   0.069915  -0.144774  -0.166041   0.312073  -0.253164
     19       0.207594  -0.320317  -0.361134  -0.044573   0.257162  -0.242151
     20       0.122742  -0.106225  -0.059675  -0.088670  -0.048710   0.025607
     21      -0.023328   0.033700  -0.027351   0.161248  -0.020102   0.045373
     22      -0.038319   0.008889   0.016572   0.014853   0.119719   0.032892
     23       0.338180  -0.271836  -0.302325  -0.209197   0.151190  -0.230648
     24       0.022431   0.038418   0.025847  -0.161025   0.006866   0.019309
     25      -0.046716  -0.016795   0.021381   0.011803  -0.106375  -0.021257
     26      -0.346038  -0.255342   0.286540   0.224700   0.162096  -0.234497
     27      -0.232238   0.066408   0.112936   0.170820   0.326983  -0.269990
     28       0.207262   0.301574  -0.333383  -0.067593  -0.255629   0.246036
     29      -0.125865  -0.091115   0.066343   0.082407  -0.041321   0.011617
     30      -0.022433   0.038396   0.025855  -0.161018  -0.006810   0.019305
     31      -0.046729   0.016777  -0.021364  -0.011877  -0.106379   0.021263
     32       0.346177  -0.255100   0.286522   0.224680  -0.162110  -0.234500
     33       0.232108   0.066718   0.112755   0.170769  -0.326863  -0.269870
     34       0.207538  -0.301397   0.333424   0.067670  -0.255810  -0.246170
     35       0.125912  -0.091020   0.066334   0.082404   0.041320   0.011619
     36      -0.237136   0.069594  -0.144955  -0.166053  -0.312190  -0.253284
     37       0.207328   0.320489   0.361060   0.044485   0.256997   0.242027
     38      -0.122708  -0.106327  -0.059691  -0.088670   0.048696   0.025591
     39       0.023336   0.033722  -0.027340   0.161254   0.020044   0.045392
     40      -0.038323  -0.008917  -0.016597  -0.014782   0.119720  -0.032884
     41      -0.338058  -0.272069  -0.302314  -0.209180  -0.151177  -0.230641
     42       0.000004   0.023419   0.046643  -0.158178   0.000023  -0.057749
     43      -0.040262   0.000001   0.000011  -0.000025  -0.103565  -0.000026
     44      -0.000090   0.393820   0.035951   0.527012  -0.000004  -0.464459
                 12         13         14         15         16         17    
      0       0.031305  -0.117025   0.094770  -0.091166   0.006448  -0.094942
      1      -0.117894  -0.120967   0.045677  -0.075141   0.083427   0.090418
      2       0.046096   0.017325   0.051019   0.062957  -0.054635   0.007895
      3       0.005821   0.061918   0.039184   0.150560  -0.126607   0.121933
      4      -0.030320  -0.185265  -0.013394  -0.077775  -0.098694   0.001127
      5       0.044776  -0.083115   0.069292  -0.025201  -0.001622   0.002344
      6      -0.004571   0.175141   0.000013  -0.000018   0.106785  -0.056699
      7      -0.000000   0.000031  -0.084131   0.075058   0.000032  -0.000015
      8      -0.022361   0.102201  -0.000003  -0.000003   0.061968  -0.032475
      9       0.005805   0.061830  -0.039186  -0.150508  -0.126669   0.121934
     10       0.030324   0.185298  -0.013434  -0.077851   0.098627  -0.001066
     11       0.044778  -0.083140  -0.069283   0.025201  -0.001619   0.002342
     12       0.031251  -0.117111  -0.094781   0.091197   0.006501  -0.094898
     13       0.117912   0.120923   0.045617  -0.075085  -0.083436  -0.090466
     14       0.046092   0.017314  -0.051023  -0.062949  -0.054636   0.007901
     15      -0.056112  -0.082346  -0.000007  -0.000041   0.147229   0.050134
     16      -0.000018  -0.000018   0.054294   0.130615   0.000042   0.000013
     17      -0.164386   0.009310  -0.000004  -0.000001   0.007791   0.025779
     18      -0.170941   0.090561  -0.240094  -0.140748  -0.027362  -0.287735
     19      -0.038501   0.044893  -0.200800  -0.001651   0.061773   0.103253
     20       0.032030   0.027259   0.026872   0.058682  -0.051104   0.013777
     21       0.084096  -0.380011   0.225174  -0.339016  -0.162637  -0.335534
     22      -0.128460  -0.088193   0.137866   0.059970   0.183308   0.257374
     23      -0.003273   0.271818  -0.326792   0.083213  -0.073995  -0.061029
     24       0.188016   0.098985   0.098838   0.423108  -0.278270   0.331051
     25      -0.017750  -0.193502  -0.128881   0.002674  -0.214912   0.081190
     26      -0.187291  -0.150324  -0.254308  -0.243825  -0.051227  -0.126044
     27      -0.216716   0.124505  -0.282722   0.005624  -0.133126   0.008092
     28       0.089620  -0.025837   0.147101   0.118254  -0.013222   0.085965
     29       0.032966  -0.072756   0.047038  -0.033374   0.004231  -0.011847
     30       0.188010   0.098892  -0.098794  -0.423080  -0.278408   0.331089
     31       0.017843   0.193517  -0.128941   0.002460   0.214779  -0.081030
     32      -0.187296  -0.150280   0.254322   0.243814  -0.051225  -0.126033
     33      -0.216682   0.124558   0.282632  -0.005667  -0.133152   0.008137
     34      -0.089734   0.025931   0.147235   0.118247   0.013161  -0.085957
     35       0.032966  -0.072772  -0.047028   0.033372   0.004235  -0.011849
     36      -0.170970   0.090623   0.240179   0.140760  -0.027332  -0.287685
     37       0.038425  -0.044885  -0.200681  -0.001580  -0.061790  -0.103383
     38       0.032026   0.027265  -0.026858  -0.058677  -0.051107   0.013780
     39       0.084044  -0.380125  -0.225212   0.338983  -0.162502  -0.335399
     40       0.128500   0.088043   0.137764   0.060154  -0.183387  -0.257543
     41      -0.003287   0.271874   0.326750  -0.083190  -0.074004  -0.061026
     42       0.199493  -0.188230   0.000043  -0.000090   0.325691   0.127488
     43       0.000067  -0.000072  -0.097959   0.279582   0.000113   0.000038
     44       0.724768  -0.335293   0.000041  -0.000047   0.593026   0.283433
                 18         19         20         21         22         23    
      0       0.075499   0.024835   0.067263   0.139149  -0.028165   0.013566
      1       0.115324   0.017407   0.038659  -0.195416   0.005336  -0.007954
      2       0.046940   0.118277  -0.091523   0.006568   0.142958   0.012529
      3       0.034285  -0.039411  -0.148315  -0.099746  -0.001481  -0.006022
      4      -0.141250  -0.038029  -0.224796   0.015683   0.051524   0.018753
      5      -0.022909  -0.121516   0.037344   0.038158  -0.142075   0.052374
      6      -0.048620  -0.000024  -0.000070   0.000001   0.025806   0.000002
      7      -0.000021   0.071755   0.295819   0.009180   0.000006  -0.014423
      8       0.038287   0.000004  -0.000004   0.000011   0.064308  -0.000001
      9       0.034204   0.039443   0.148424   0.099740  -0.001477   0.006014
     10       0.141273  -0.037966  -0.224728   0.015713  -0.051532   0.018755
     11      -0.022953   0.121511  -0.037337  -0.038208  -0.142065  -0.052372
     12       0.075563  -0.024827  -0.067285  -0.139063  -0.028133  -0.013560
     13      -0.115288   0.017358   0.038634  -0.195488  -0.005305  -0.007962
     14       0.046983  -0.118265   0.091519  -0.006509   0.142958  -0.012530
     15      -0.114537  -0.000017   0.000006  -0.000073   0.022635   0.000002
     16      -0.000030   0.004521  -0.013086   0.307022  -0.000028  -0.013124
     17      -0.001231   0.000000   0.000000  -0.000025  -0.098665   0.000001
     18      -0.203936  -0.000820   0.038791   0.371984  -0.148781   0.325306
     19      -0.124754  -0.407649   0.091845  -0.042880  -0.284966  -0.262634
     20       0.020464   0.088823  -0.087391  -0.003293   0.113592   0.011994
     21       0.341703  -0.003634  -0.129643   0.188405   0.002692  -0.356792
     22       0.100136   0.200214   0.092355  -0.249245   0.124771   0.226471
     23      -0.270190  -0.268580   0.023883   0.103872  -0.181158  -0.034351
     24       0.060972  -0.033046   0.119475  -0.051042  -0.178517  -0.128498
     25      -0.195714   0.129283  -0.124896   0.063965   0.110967  -0.110020
     26      -0.168145   0.218985  -0.185023   0.077061   0.244388  -0.043424
     27      -0.228378   0.072850  -0.334063  -0.082929   0.266077   0.193855
     28      -0.117828  -0.309113   0.150741  -0.068890  -0.264650   0.260078
     29      -0.030926  -0.098997   0.042300   0.046122  -0.114631   0.055892
     30       0.060857   0.033014  -0.119426   0.050948  -0.178479   0.128546
     31       0.195695   0.129346  -0.124951   0.063950  -0.111061  -0.109947
     32      -0.168068  -0.219036   0.185025  -0.076973   0.244400   0.043423
     33      -0.228396  -0.072760   0.333992   0.083052   0.265921  -0.193979
     34       0.117813  -0.309116   0.150907  -0.068754   0.264797   0.259971
     35      -0.030966   0.098993  -0.042298  -0.046161  -0.114623  -0.055898
     36      -0.203991   0.000970  -0.038832  -0.372010  -0.148860  -0.325174
     37       0.124791  -0.407622   0.091826  -0.042956   0.284902  -0.262791
     38       0.020481  -0.088794   0.087384   0.003328   0.113572  -0.011986
     39       0.341756   0.003610   0.129584  -0.188258   0.002812   0.356683
     40      -0.100043   0.200202   0.092416  -0.249375  -0.124724   0.226648
     41      -0.270258   0.268499  -0.023878  -0.103924  -0.181130   0.034347
     42      -0.193398  -0.000043   0.000128  -0.000097   0.099079   0.000016
     43      -0.000069   0.064021  -0.498272   0.465938  -0.000017  -0.073768
     44      -0.265660  -0.000039   0.000022   0.000030   0.204758  -0.000002
                 24         25         26         27         28         29    
      0       0.036561   0.032025   0.036470  -0.062741   0.003574  -0.076136
      1      -0.024098   0.019998  -0.000759   0.057620   0.009873   0.044737
      2      -0.025613   0.029315  -0.023060  -0.024758   0.021023   0.010623
      3      -0.022495  -0.007897  -0.038302  -0.000954  -0.077778  -0.063935
      4       0.049071  -0.013242   0.016615  -0.021416  -0.024619  -0.045223
      5       0.008463   0.050440  -0.011036   0.029713   0.000524   0.004327
      6       0.000016  -0.012949   0.043464  -0.000001   0.000011   0.021509
      7      -0.060009  -0.000004   0.000007  -0.023955  -0.044280   0.000008
      8       0.000002  -0.043251   0.055378  -0.000009  -0.000001  -0.001195
      9       0.022469  -0.007904  -0.038291   0.000974   0.077784  -0.063963
     10       0.049081   0.013241  -0.016642  -0.021410  -0.024575   0.045193
     11      -0.008465   0.050441  -0.011046  -0.029707  -0.000521   0.004326
     12      -0.036549   0.032031   0.036489   0.062701  -0.003582  -0.076116
     13      -0.024114  -0.019983   0.000794   0.057649   0.009867  -0.044775
     14       0.025612   0.029317  -0.023053   0.024764  -0.021022   0.010626
     15      -0.000001  -0.050057  -0.031314   0.000012  -0.000005   0.033723
     16       0.006016  -0.000013  -0.000012  -0.030891   0.023233   0.000006
     17       0.000001  -0.070327  -0.006063   0.000001  -0.000001  -0.007972
     18      -0.037433   0.374756   0.126071   0.450882  -0.126065   0.246815
     19       0.070566  -0.310800  -0.025334  -0.199438   0.036139  -0.050222
     20      -0.021808   0.011684  -0.027564  -0.025523   0.016861   0.003979
     21      -0.344925  -0.298138  -0.187681   0.191658   0.126227   0.338977
     22       0.177704   0.269854   0.138196  -0.077389  -0.044403  -0.141727
     23       0.014149  -0.103218  -0.044262  -0.041319  -0.012619  -0.089307
     24       0.283151  -0.028848   0.327048   0.327785   0.319384   0.380154
     25       0.288306  -0.075966   0.328457   0.173804   0.224206   0.208897
     26       0.081232  -0.049930   0.118705  -0.024190  -0.027239  -0.074736
     27      -0.229265   0.141178  -0.348263  -0.170384   0.474030   0.266966
     28      -0.221712   0.215949  -0.258290  -0.049581   0.244966   0.090050
     29       0.003402   0.048399  -0.008607   0.019272   0.012819   0.004558
     30      -0.283286  -0.028880   0.327106  -0.327961  -0.319474   0.380295
[...]
     18      -0.009550   0.003654   0.000566  -0.000148  -0.009012   0.008371
     19      -0.022065   0.034335   0.000577  -0.002335  -0.011332   0.013710
     20       0.687472  -0.688091  -0.083495   0.062997   0.114532  -0.111955
     21      -0.051748   0.050541   0.026906  -0.029506   0.323945  -0.316330
     22      -0.095231   0.095629   0.055110  -0.061480   0.565631  -0.553808
     23      -0.058043   0.055289   0.027027  -0.029282   0.254519  -0.249912
     24      -0.000891   0.004964   0.087128  -0.083697   0.002018  -0.004897
     25       0.007097  -0.014211  -0.136464   0.134331  -0.004736   0.009134
     26      -0.001649   0.005540   0.076361  -0.071885   0.002620  -0.004961
     27       0.002999  -0.001038   0.019698  -0.015473  -0.003214   0.003448
     28      -0.002510   0.002059  -0.007440   0.018196   0.000791  -0.002474
     29      -0.098629   0.080750  -0.673392   0.675945   0.054187  -0.065729
     30       0.000876   0.004957  -0.087039  -0.083648  -0.001914  -0.004924
     31       0.007067   0.014224  -0.136476  -0.134404  -0.004551  -0.009216
     32       0.001637   0.005541  -0.076342  -0.071900  -0.002518  -0.005006
     33      -0.002998  -0.001045  -0.019702  -0.015479   0.003147   0.003509
     34      -0.002505  -0.002063  -0.007431  -0.018191   0.000743   0.002489
     35       0.098477   0.080963   0.673235   0.676099  -0.052892  -0.066777
     36       0.009565   0.003702  -0.000568  -0.000150   0.008854   0.008554
     37      -0.022029  -0.034416   0.000581   0.002339  -0.011064  -0.013932
     38      -0.686089  -0.689460   0.083497   0.063026  -0.112326  -0.114177
     39       0.051694   0.050691  -0.026928  -0.029543  -0.317969  -0.322878
     40      -0.095013  -0.095793   0.055086   0.061479   0.554533   0.564596
     41       0.057940   0.055412  -0.027027  -0.029294  -0.249625  -0.254882
     42       0.000005  -0.007530  -0.000000   0.001770  -0.000040   0.004143
     43       0.009569   0.000008  -0.000526   0.000000  -0.003798  -0.000036
     44       0.000001  -0.001537  -0.000000   0.000400   0.000045  -0.004564
                 42         43         44    
      0       0.001127  -0.001474   0.000475
      1       0.002030  -0.002786   0.000855
      2      -0.002378   0.002486  -0.001971
      3      -0.029738   0.029466  -0.000398
      4       0.042954  -0.044489  -0.000321
      5      -0.034443   0.033573   0.000248
      6       0.000000  -0.000624  -0.000065
      7       0.001262   0.000001  -0.000000
      8       0.000000  -0.000207  -0.000060
      9       0.029676   0.029483  -0.000399
     10       0.042910   0.044562   0.000320
     11       0.034398   0.033618   0.000248
     12      -0.001126  -0.001477   0.000475
     13       0.002025   0.002788  -0.000855
     14       0.002375   0.002490  -0.001971
     15       0.000000  -0.000443   0.069180
     16      -0.000640  -0.000001   0.000016
     17       0.000000  -0.000208  -0.017826
     18      -0.001537   0.001376  -0.001646
     19      -0.000731   0.001637   0.001722
     20       0.027321  -0.029712   0.003748
     21      -0.012572   0.016989  -0.001221
     22      -0.019439   0.026553  -0.005017
     23      -0.008143   0.011153  -0.000412
     24       0.355739  -0.355210   0.000501
     25      -0.528973   0.528410   0.001789
     26       0.252303  -0.253316  -0.000533
     27      -0.011861   0.011264  -0.000540
     28       0.006862  -0.009466   0.000139
     29       0.158696  -0.153462   0.000373
     30      -0.354997  -0.355424   0.000502
     31      -0.528444  -0.529304  -0.001788
     32      -0.251956  -0.253649  -0.000533
     33       0.011845   0.011278  -0.000540
     34       0.006852   0.009477  -0.000139
     35      -0.158489  -0.153673   0.000373
     36       0.001536   0.001379  -0.001646
     37      -0.000729  -0.001639  -0.001723
     38      -0.027283  -0.029750   0.003749
     39       0.012552   0.017014  -0.001223
     40      -0.019386  -0.026563   0.005017
     41       0.008125   0.011162  -0.000412
     42      -0.000001   0.000132  -0.956288
     43       0.001407   0.000001  -0.000227
     44       0.000002  -0.002493   0.283370


-----------
IR SPECTRUM
-----------

 Mode   freq       eps      Int      T**2         TX        TY        TZ
       cm**-1   L/(mol*cm) km/mol    a.u.
----------------------------------------------------------------------------
  6:    272.67   0.000208    1.05  0.000238  (-0.000014  0.015434  0.000008)
  7:    274.55   0.001813    9.16  0.002061  ( 0.035971  0.000014 -0.027699)
  8:    429.22   0.000014    0.07  0.000010  (-0.003170 -0.000001 -0.000310)
  9:    447.26   0.001184    5.98  0.000826  ( 0.008278  0.000002  0.027520)
 10:    482.44   0.000195    0.98  0.000126  ( 0.000003 -0.011221 -0.000000)
 11:    593.70   0.006254   31.60  0.003287  (-0.050447 -0.000014 -0.027245)
 12:    797.26   0.017911   90.51  0.007011  ( 0.048547  0.000014  0.068219)
 13:    838.31   0.003687   18.63  0.001372  (-0.025494 -0.000005 -0.026878)
 14:    859.49   0.000222    1.12  0.000080  ( 0.000000  0.008969  0.000003)
 15:    892.07   0.001247    6.30  0.000436  ( 0.000006 -0.020886 -0.000000)
 16:    911.73   0.002558   12.93  0.000876  (-0.029412 -0.000008  0.003244)
 17:   1036.54   0.001374    6.94  0.000414  ( 0.020009  0.000005  0.003653)
 18:   1081.26   0.001897    9.59  0.000547  ( 0.004376  0.000004 -0.022985)
 19:   1083.10   0.002818   14.24  0.000812  ( 0.000008 -0.028496 -0.000003)
 20:   1090.49   0.019016   96.10  0.005442  ( 0.000017 -0.073769  0.000000)
 21:   1136.34   0.005407   27.33  0.001485  ( 0.000011 -0.038536  0.000003)
 22:   1142.96   0.000489    2.47  0.000133  ( 0.007142  0.000008  0.009077)
 23:   1218.63   0.000917    4.63  0.000235  (-0.000004  0.015320 -0.000001)
 24:   1240.01   0.000864    4.36  0.000217  (-0.000004  0.014741 -0.000001)
 25:   1296.00   0.001185    5.99  0.000285  (-0.004068 -0.000001  0.016396)
 26:   1330.13   0.000585    2.95  0.000137  (-0.007368  0.000003 -0.009104)
 27:   1335.83   0.005606   28.33  0.001310  (-0.000008  0.036188  0.000001)
 28:   1367.90   0.002476   12.51  0.000565  ( 0.000006 -0.023768  0.000000)
 29:   1399.43   0.000249    1.26  0.000056  (-0.007152 -0.000001 -0.002116)
 30:   1413.80   0.000432    2.18  0.000095  ( 0.009707  0.000003  0.001042)
 31:   1470.54   0.000038    0.19  0.000008  (-0.000000  0.002840 -0.000000)
 32:   1471.95   0.000256    1.30  0.000054  (-0.000001  0.007372  0.000000)
 33:   1480.91   0.000113    0.57  0.000024  ( 0.000015 -0.004874 -0.000019)
 34:   1481.56   0.002889   14.60  0.000609  (-0.016154 -0.000008  0.018645)
 35:   1487.78   0.000077    0.39  0.000016  (-0.004019 -0.000001  0.000204)
 36:   2904.30   0.008982   45.39  0.000965  (-0.000006  0.031067 -0.000049)
 37:   2908.56   0.021458  108.44  0.002302  (-0.001632  0.000032  0.047954)
 38:   2954.75   0.003977   20.10  0.000420  (-0.000006  0.020494  0.000005)
 39:   2958.84   0.022341  112.90  0.002356  ( 0.013187  0.000005 -0.046715)
 40:   3041.49   0.010701   54.08  0.001098  (-0.000128 -0.033135 -0.000185)
 41:   3041.70   0.005395   27.26  0.000553  ( 0.013811 -0.000320  0.019043)
 42:   3073.57   0.009694   48.99  0.000984  (-0.000018  0.031372 -0.000012)
 43:   3075.31   0.005096   25.75  0.000517  ( 0.015224  0.000025  0.016892)
 44:   3510.35   0.000033    0.17  0.000003  (-0.000738 -0.000000  0.001542)

* The epsilon (eps) is given for a Dirac delta lineshape.
** The dipole moment derivative (T) already includes vibrational overlap.

The first frequency considered to be a vibration is 6
The total number of vibrations considered is 39


--------------------------
THERMOCHEMISTRY AT 298.15K
--------------------------

Temperature         ...   298.15 K
Pressure            ...     1.00 atm
Total Mass          ...    87.12 AMU
Quasi RRHO          ...     True
Cut-Off Frequency   ...     1.00 cm^-1

Throughout the following assumptions are being made:
  (1) The electronic state is orbitally nondegenerate
  (2) There are no thermally accessible electronically excited states
  (3) Hindered rotations indicated by low frequency modes are not
      treated as such but are treated as vibrations and this may
      cause some error
  (4) All equations used are the standard statistical mechanics
      equations for an ideal gas
  (5) All vibrations are strictly harmonic

freq.     272.67  E(vib)   ...       0.29 
freq.     274.55  E(vib)   ...       0.28 
freq.     429.22  E(vib)   ...       0.18 
freq.     447.26  E(vib)   ...       0.17 
freq.     482.44  E(vib)   ...       0.15 
freq.     593.70  E(vib)   ...       0.10 
freq.     797.26  E(vib)   ...       0.05 
freq.     838.31  E(vib)   ...       0.04 
freq.     859.49  E(vib)   ...       0.04 
freq.     892.07  E(vib)   ...       0.03 
freq.     911.73  E(vib)   ...       0.03 
freq.    1036.54  E(vib)   ...       0.02 
freq.    1081.26  E(vib)   ...       0.02 
freq.    1083.10  E(vib)   ...       0.02 
freq.    1090.49  E(vib)   ...       0.02 
freq.    1136.34  E(vib)   ...       0.01 
freq.    1142.96  E(vib)   ...       0.01 
freq.    1218.63  E(vib)   ...       0.01 
freq.    1240.01  E(vib)   ...       0.01 
freq.    1296.00  E(vib)   ...       0.01 
freq.    1330.13  E(vib)   ...       0.01 
freq.    1335.83  E(vib)   ...       0.01 
freq.    1367.90  E(vib)   ...       0.01 
freq.    1399.43  E(vib)   ...       0.00 
freq.    1413.80  E(vib)   ...       0.00 
freq.    1470.54  E(vib)   ...       0.00 
freq.    1471.95  E(vib)   ...       0.00 
freq.    1480.91  E(vib)   ...       0.00 
freq.    1481.56  E(vib)   ...       0.00 
freq.    1487.78  E(vib)   ...       0.00 
freq.    2904.30  E(vib)   ...       0.00 
freq.    2908.56  E(vib)   ...       0.00 
freq.    2954.75  E(vib)   ...       0.00 
freq.    2958.84  E(vib)   ...       0.00 
freq.    3041.49  E(vib)   ...       0.00 
freq.    3041.70  E(vib)   ...       0.00 
freq.    3073.57  E(vib)   ...       0.00 
freq.    3075.31  E(vib)   ...       0.00 
freq.    3510.35  E(vib)   ...       0.00 

------------
INNER ENERGY
------------

The inner energy is: U= E(el) + E(ZPE) + E(vib) + E(rot) + E(trans)
    E(el)   - is the total energy from the electronic structure calculation
              = E(kin-el) + E(nuc-el) + E(el-el) + E(nuc-nuc)
    E(ZPE)  - the the zero temperature vibrational energy from the frequency calculation
    E(vib)  - the the finite temperature correction to E(ZPE) due to population
              of excited vibrational states
    E(rot)  - is the rotational thermal energy
    E(trans)- is the translational thermal energy

Summary of contributions to the inner energy U:
Electronic energy                ...   -287.73750648 Eh
Zero point energy                ...      0.13403076 Eh      84.11 kcal/mol
Thermal vibrational correction   ...      0.00243966 Eh       1.53 kcal/mol
Thermal rotational correction    ...      0.00141627 Eh       0.89 kcal/mol
Thermal translational correction ...      0.00141627 Eh       0.89 kcal/mol
-----------------------------------------------------------------------
Total thermal energy                   -287.59820352 Eh


Summary of corrections to the electronic energy:
(perhaps to be used in another calculation)
Total thermal correction                  0.00527220 Eh       3.31 kcal/mol
Non-thermal (ZPE) correction              0.13403076 Eh      84.11 kcal/mol
-----------------------------------------------------------------------
Total correction                          0.13930296 Eh      87.41 kcal/mol


--------
ENTHALPY
--------

The enthalpy is H = U + kB*T
                kB is Boltzmann's constant
Total thermal energy              ...   -287.59820352 Eh 
Thermal Enthalpy correction       ...      0.00094421 Eh       0.59 kcal/mol
-----------------------------------------------------------------------
Total Enthalpy                    ...   -287.59725931 Eh


Note: Rotational entropy computed according to Herzberg 
Infrared and Raman Spectra, Chapter V,1, Van Nostrand Reinhold, 1945 
Point Group:  Cs, Symmetry Number:   1  
Rotational constants in cm-1:     0.164021     0.153801     0.089344 

Vibrational entropy computed according to the QRRHO of S. Grimme
Chem.Eur.J. 2012 18 9955 using a reference frequency of 100.0 cm-1


-------
ENTROPY
-------

The entropy contributions are T*S = T*(S(el)+S(vib)+S(rot)+S(trans))
     S(el)   - electronic entropy
     S(vib)  - vibrational entropy
     S(rot)  - rotational entropy
     S(trans)- translational entropy
The entropies will be listed as multiplied by the temperature to get
units of energy

Electronic entropy                ...      0.00000000 Eh      0.00 kcal/mol
Vibrational entropy               ...      0.00355174 Eh      2.23 kcal/mol
Rotational entropy                ...      0.01238826 Eh      7.77 kcal/mol
Translational entropy             ...      0.01867599 Eh     11.72 kcal/mol
-----------------------------------------------------------------------
Final entropy term                ...      0.03461600 Eh     21.72 kcal/mol

In case the symmetry of your molecule has not been determined correctly
or in case you have a reason to use a different symmetry number we print 
out the resulting rotational entropy values for sn=1,12:

 non-linear molecules -----------------------------------
|  sn= 1 | S(rot)=       0.01238826 Eh      7.77 kcal/mol|
|  sn= 2 | S(rot)=       0.01173380 Eh      7.36 kcal/mol|
|  sn= 3 | S(rot)=       0.01135097 Eh      7.12 kcal/mol|
|  sn= 4 | S(rot)=       0.01107935 Eh      6.95 kcal/mol|
|  sn= 5 | S(rot)=       0.01086866 Eh      6.82 kcal/mol|
|  sn= 6 | S(rot)=       0.01069651 Eh      6.71 kcal/mol|
|  sn= 7 | S(rot)=       0.01055097 Eh      6.62 kcal/mol|
|  sn= 8 | S(rot)=       0.01042489 Eh      6.54 kcal/mol|
|  sn= 9 | S(rot)=       0.01031368 Eh      6.47 kcal/mol|
|  sn=10 | S(rot)=       0.01021420 Eh      6.41 kcal/mol|
|  sn=11 | S(rot)=       0.01012421 Eh      6.35 kcal/mol|
|  sn=12 | S(rot)=       0.01004206 Eh      6.30 kcal/mol|
 linear molecules ---------------------------------------
|  Dinfh | S(rot)=       0.00760625 Eh      4.77 kcal/mol|
|  Cinfv | S(rot)=       0.00826071 Eh      5.18 kcal/mol|
 --------------------------------------------------------


-------------------
GIBBS FREE ENERGY
-------------------

The Gibbs free energy is G = H - T*S

Total enthalpy                    ...   -287.59725931 Eh 
Total entropy correction          ...     -0.03461600 Eh    -21.72 kcal/mol
-----------------------------------------------------------------------
Final Gibbs free energy         ...   -287.63187531 Eh

For completeness - the Gibbs free energy minus the electronic energy
G-E(el)                           ...      0.10563118 Eh     66.28 kcal/mol


Maximum memory used throughout the entire PROP-calculation: 50.0 MB

--------------------------------
SUGGESTED CITATIONS FOR THIS RUN
--------------------------------

Below you find a list of papers that are relevant to this ORCA run
We neither can nor want to force you to cite these papers, but we appreciate if you do
You receive ORCA, which is the product of decades of hard work by many enthusiastic individuals, for free
The only thing we kindly ask in return is that you cite our papers,
We deeply appreciate it, if you show your appreciation for ORCA by not just citing the generic ORCA reference.

Please note that relegating all ORCA citations to the supporting information does *not* help us.
SI sections are not indexed - citations you put there will not count into any citation statistics
But we need these citations in order to attract the funding resources that allow us to do what we are doing

Therefore, if you are a happy ORCA user, please consider citing a few of the papers listed below in the main body of your paper

In addition to the list printed below, the program has created the file vacuum_censo.bibtex that contains the list in bibtex format
You can import this file easily into all common literature databanks and citation aid programs


List of essential papers. We consider these as the minimum necessary citations

  1. Neese,F.
     Software update: the ORCA program system, version 5.0
     WIRES Comput. Molec. Sci., 2022 12(1)e1606
     doi.org/10.1002/wcms.1606
  2. Grimme,S.; Hansen,A.; Ehlert,S.; Mewes,J.
     r2SCAN-3c: A 'Swiss army knife' composite electronic-structure method
     J. Chem. Phys., 2021 154 064103
     doi.org/10.1063/5.0040021

List of papers to cite with high priority. The work reported in these papers was absolutely
necessary for this run to complete.
Our perspective: the developers of density functionals and basis sets usually get cited in chemistry papers
Good! But without the algorithms to do something with them, the functionals or basis sets would not do anything.
Hence, in our opinion, the algorithm design and method developments papers are equally worthy of getting cited

  1. Neese,F.
     An improvement of the resolution of the identity approximation for the formation of the Coulomb matrix
     J. Comp. Chem., 2003 24(14)1740-1747
     doi.org/10.1002/jcc.10318
  2. Bykov,D.; Petrenko,T.; Izsak,R.; Kossmann,S.; Becker,U.; Valeev,E.; Neese,F.
     Efficient implementation of the analytic second derivatives of Hartree-Fock and hybrid DFT energies: a detailed analysis of different approximations
     Molec. Phys., 2015 113 1961-1977
     doi.org/10.1080/00268976.2015.1025114
  3. Neese,F.
     The SHARK Integral Generation and Digestion System
     J. Comp. Chem., 2022  1-16
     doi.org/10.1002/jcc.26942
  4. Lehtola,S.; Steigemann,C.; Oliveira,M.; Marques,M.
     Recent developments in Libxc - A comprehensive library of functionals for density functional theory
     Software X, 2018 7 
     doi.org/10.1016/j.softx.2017.11.002
  5. Caldeweyher,E.; Bannwarth,C.; Grimme,S.
     Extension of the D3 dispersion coefficient model
     J. Chem. Phys., 2017 147 034112-XXXX
     doi.org/10.1063/1.4993215
  6. Caldeweyher,E.; Ehlert,S.; Hansen,A.; Neugebauer,H.; Spicher,S.; Bannwarth,C.; Grimme,S.
     A generally applicable atomic-charge dependent London dispersion correction
     J. Chem. Phys., 2019 150 154122-XXXX
     doi.org/10.1063/1.5090222
  7. Caldeweyher,E.; Mewes,J.; Ehlert,S.; Grimme,S.
     Extension and evaluation of the D4 London-dispersion model for periodic systems
     Phys. Chem. Chem. Phys., 2020 22(16)8499-8512
     doi.org/10.1039/D0CP00502A

List of suggested additional citations. These are papers that are important in the 'surrounding' of 
of this run, or papers that preceded the highly important papers. If you like your results we are grateful for a citation.

  1. Neese,F.
     The ORCA program system
     WIRES Comput. Molec. Sci., 2012 2(1)73-78
     doi.org/10.1002/wcms.81
  2. Neese,F.
     Software update: the ORCA program system, version 4.0
     WIRES Comput. Molec. Sci., 2018 8(1)1-6
     doi.org/10.1002/wcms.1327
  3. Neese,F.; Wennmohs,F.; Becker,U.; Riplinger,C.
     The ORCA quantum chemistry program package
     J. Chem. Phys., 2020 152 Art. No. L224108
     doi.org/10.1063/5.0004608

List of optional additional citations

  1. Neese,F.
     Approximate second-order SCF convergence for spin unrestricted wavefunctions
     Chem. Phys. Lett., 2000 325(1-3)93-98
     doi.org/10.1016/s0009-2614(00)00662-x

Timings for individual modules:

Sum of individual times          ...      540.662 sec (=   9.011 min)
Startup calculation              ...        1.004 sec (=   0.017 min)   0.2 %
SCF iterations                   ...       27.904 sec (=   0.465 min)   5.2 %
Property integrals               ...      322.783 sec (=   5.380 min)  59.7 %
SCF Response                     ...       89.159 sec (=   1.486 min)  16.5 %
Property calculations            ...       99.812 sec (=   1.664 min)  18.5 %
                             ****ORCA TERMINATED NORMALLY****
TOTAL RUN TIME: 0 days 0 hours 9 minutes 1 seconds 407 msec
