 Entering Gaussian System
 *********************************************
 Gaussian 98:
 frequency output generated by the xtb code
 *********************************************
                         Standard orientation:
 --------------------------------------------------------------------
  Center     Atomic     Atomic              Coordinates (Angstroms)
  Number     Number      Type              X           Y           Z
 --------------------------------------------------------------------
    1          6             0        2.474644    1.174636   -0.289554
    2          6             0        1.699079   -0.093730   -0.033137
    3          8             0        2.249961   -1.153148    0.157643
    4          6             0        0.215615    0.016333   -0.026087
    5          6             0       -0.484588    1.206600   -0.219200
    6          6             0       -1.868117    1.180235   -0.190030
    7          6             0       -2.504405   -0.033333    0.031167
    8          7             0       -1.854082   -1.170278    0.215702
    9          6             0       -0.537414   -1.143177    0.187388
   10          1             0        2.254294    1.909796    0.481720
   11          1             0        2.203818    1.591111   -1.257471
   12          1             0        3.538281    0.951490   -0.278710
   13          1             0        0.031999    2.139455   -0.388524
   14          1             0       -2.442134    2.082386   -0.335421
   15          1             0       -3.583879   -0.101902    0.062875
   16          1             0       -0.030761   -2.086784    0.340976
 --------------------------------------------------------------------
     1 basis functions        1 primitive gaussians
     1 alpha electrons        1 beta electrons
 
 Harmonic frequencies (cm**-1), IR intensities (km*mol⁻¹),
 Raman scattering activities (A**4/amu), Raman depolarization ratios,
 reduced masses (AMU), force constants (mDyne/A) and normal coordinates:
                      1                      2                      3
                        a                      a                      a 
 Frequencies --    -7.7748               136.4771               186.2374
 Red. masses --    11.4060                10.2862                 1.5945
 Frc consts  --     0.0000                 0.0000                 0.0000
 IR Inten    --     1.5051                 1.1891                 0.3931
 Raman Activ --     0.0000                 0.0000                 0.0000
 Depolar     --     0.0000                 0.0000                 0.0000
 Atom AN      X      Y      Z        X      Y      Z        X      Y      Z
   1   6     0.01   0.09   0.49    -0.01  -0.03  -0.18     0.00   0.01   0.06
   2   6    -0.00  -0.01  -0.05     0.00   0.01   0.05    -0.00  -0.01  -0.05
   3   8    -0.01  -0.10  -0.52     0.00  -0.06  -0.32     0.00   0.02   0.11
   4   6    -0.00  -0.01  -0.04     0.01   0.07   0.42    -0.00  -0.02  -0.10
   5   6    -0.01  -0.05  -0.28     0.01   0.06   0.33    -0.00  -0.02  -0.10
   6   6    -0.00  -0.04  -0.23    -0.00  -0.02  -0.10    -0.00  -0.01  -0.06
   7   6     0.00   0.01   0.04    -0.01  -0.07  -0.43     0.00   0.01   0.03
   8   7     0.01   0.05   0.30    -0.00  -0.01  -0.05     0.00   0.01   0.07
   9   6     0.00   0.04   0.24     0.01   0.07   0.40    -0.00  -0.01  -0.02
  10   1    -0.08  -0.02   0.16     0.09  -0.01  -0.02     0.39  -0.25   0.38
  11   1     0.09   0.08   0.14    -0.10   0.01  -0.02    -0.37   0.37   0.28
  12   1     0.01   0.04   0.22    -0.01  -0.03  -0.17    -0.01  -0.09  -0.48
  13   1    -0.00  -0.03  -0.16     0.00   0.03   0.15     0.00  -0.00  -0.02
  14   1    -0.00  -0.02  -0.12    -0.00  -0.01  -0.08    -0.00  -0.00  -0.02
  15   1     0.00   0.00   0.02    -0.01  -0.05  -0.28     0.00   0.00   0.03
  16   1     0.00   0.02   0.13     0.00   0.03   0.19    -0.00  -0.00  -0.00
                      4                      5                      6
                        a                      a                      a 
 Frequencies --   204.9574               327.2127               353.6397
 Red. masses --    11.2395                 8.9954                11.0171
 Frc consts  --     0.0000                 0.0000                 0.0000
 IR Inten    --     2.7200                 0.2917                 1.1463
 Raman Activ --     0.0000                 0.0000                 0.0000
 Depolar     --     0.0000                 0.0000                 0.0000
 Atom AN      X      Y      Z        X      Y      Z        X      Y      Z
   1   6    -0.40   0.19  -0.02     0.02   0.01   0.03    -0.51   0.06  -0.00
   2   6     0.03  -0.09   0.01    -0.00  -0.03  -0.21    -0.12  -0.12   0.02
   3   8     0.45   0.12  -0.02     0.01   0.03   0.12    -0.38  -0.25   0.05
   4   6     0.01  -0.32   0.05    -0.01  -0.06  -0.30     0.02   0.10  -0.02
   5   6     0.19  -0.21   0.03    -0.01  -0.04  -0.23     0.15   0.16  -0.05
   6   6     0.20   0.09  -0.02     0.01   0.08   0.50     0.18   0.06   0.00
   7   6    -0.02   0.21  -0.03    -0.01  -0.04  -0.23     0.30  -0.02  -0.00
   8   7    -0.23   0.10  -0.01    -0.01  -0.03  -0.19     0.27  -0.04  -0.01
   9   6    -0.19  -0.19   0.03     0.00   0.06   0.39     0.22   0.04  -0.00
  10   1    -0.17   0.03   0.00    -0.03  -0.04   0.04    -0.23  -0.02   0.01
  11   1    -0.17   0.03  -0.00     0.05   0.05   0.02    -0.24  -0.02   0.01
  12   1    -0.09   0.16  -0.02     0.00   0.01   0.05    -0.12   0.17  -0.03
  13   1     0.10  -0.08   0.01    -0.00  -0.03  -0.16     0.04   0.05  -0.02
  14   1     0.11   0.06  -0.01     0.01   0.06   0.32     0.02  -0.00   0.01
  15   1    -0.01   0.11  -0.02    -0.01  -0.03  -0.20     0.09  -0.01  -0.00
  16   1    -0.12  -0.09   0.02     0.00   0.05   0.31     0.11   0.04   0.00
                      7                      8                      9
                        a                      a                      a 
 Frequencies --   381.4513               456.7723               580.0986
 Red. masses --    10.6524                11.8447                10.6979
 Frc consts  --     0.0000                 0.0000                 0.0000
 IR Inten    --     4.3343                 2.0730                 9.8389
 Raman Activ --     0.0000                 0.0000                 0.0000
 Depolar     --     0.0000                 0.0000                 0.0000
 Atom AN      X      Y      Z        X      Y      Z        X      Y      Z
   1   6    -0.00   0.01   0.04    -0.15  -0.12   0.03    -0.14  -0.32   0.03
   2   6    -0.01  -0.05  -0.30     0.26  -0.31   0.04    -0.28  -0.14  -0.34
   3   8    -0.01   0.03   0.15     0.45  -0.29   0.05     0.32   0.25   0.07
   4   6    -0.01  -0.08  -0.45     0.14   0.21  -0.05    -0.20   0.14   0.18
   5   6     0.01   0.07   0.39    -0.21   0.11  -0.02     0.05   0.30   0.02
   6   6     0.01  -0.02  -0.11    -0.27  -0.02   0.01     0.07   0.04  -0.07
   7   6     0.00  -0.05  -0.27    -0.23  -0.04   0.00     0.18  -0.04   0.11
   8   7     0.01   0.08   0.49     0.05   0.15  -0.02    -0.04  -0.21  -0.09
   9   6     0.00  -0.02  -0.09     0.05   0.32  -0.06    -0.04   0.04   0.07
  10   1    -0.09  -0.05   0.04    -0.15  -0.07   0.02    -0.07  -0.19   0.10
  11   1     0.08   0.06   0.01    -0.15  -0.07   0.02     0.16   0.09   0.04
  12   1     0.00   0.02   0.11    -0.01   0.14  -0.02    -0.06  -0.21   0.15
  13   1     0.01   0.06   0.33    -0.15   0.08  -0.01     0.03   0.06  -0.07
  14   1     0.00  -0.00  -0.01    -0.08  -0.01   0.01    -0.05  -0.05  -0.10
  15   1    -0.00  -0.03  -0.16    -0.06  -0.07   0.01     0.05   0.03   0.02
  16   1     0.00  -0.00  -0.00     0.02   0.09  -0.01     0.06   0.04  -0.05
                     10                     11                     12
                        a                      a                      a 
 Frequencies --   580.8849               600.9649               682.9782
 Red. masses --     9.8960                11.7220                 8.8135
 Frc consts  --     0.0000                 0.0000                 0.0000
 IR Inten    --     5.4986                 6.3956                17.3881
 Raman Activ --     0.0000                 0.0000                 0.0000
 Depolar     --     0.0000                 0.0000                 0.0000
 Atom AN      X      Y      Z        X      Y      Z        X      Y      Z
   1   6    -0.10  -0.21   0.09     0.07   0.16  -0.03     0.00   0.00   0.01
   2   6    -0.18   0.04   0.52     0.13   0.02  -0.00     0.00   0.01   0.05
   3   8     0.22   0.12  -0.21    -0.08  -0.09   0.02     0.00  -0.00  -0.02
   4   6    -0.15   0.02  -0.29     0.08   0.16  -0.03    -0.01  -0.06  -0.36
   5   6     0.03   0.19  -0.13     0.31   0.22  -0.04     0.00   0.04   0.23
   6   6     0.05   0.05   0.08     0.32  -0.36   0.06    -0.01  -0.06  -0.36
   7   6     0.13  -0.06  -0.14    -0.12  -0.16   0.03     0.01   0.05   0.29
   8   7    -0.03  -0.10   0.21    -0.36  -0.30   0.06    -0.01  -0.07  -0.40
   9   6    -0.03  -0.00  -0.11    -0.31   0.29  -0.04     0.01   0.05   0.31
  10   1     0.18   0.14  -0.11    -0.02   0.03  -0.01     0.02   0.03  -0.02
  11   1    -0.12  -0.25  -0.04    -0.02   0.03  -0.00    -0.02  -0.04  -0.01
  12   1    -0.05  -0.19  -0.11     0.03   0.12  -0.02    -0.00  -0.00  -0.01
  13   1     0.02   0.07   0.08     0.00   0.11  -0.02     0.01   0.05   0.29
  14   1    -0.03   0.00   0.15     0.06  -0.12   0.02     0.00   0.01   0.07
  15   1     0.03   0.01  -0.03    -0.04   0.10  -0.02     0.01   0.06   0.34
  16   1     0.04   0.04   0.06    -0.03   0.11  -0.02     0.01   0.06   0.33
                     13                     14                     15
                        a                      a                      a 
 Frequencies --   759.4745               777.9987               905.6472
 Red. masses --    11.3246                 4.7689                 3.5157
 Frc consts  --     0.0000                 0.0000                 0.0000
 IR Inten    --     8.6753                 7.5388                 0.0673
 Raman Activ --     0.0000                 0.0000                 0.0000
 Depolar     --     0.0000                 0.0000                 0.0000
 Atom AN      X      Y      Z        X      Y      Z        X      Y      Z
   1   6    -0.22  -0.25   0.05     0.00  -0.01  -0.06    -0.00  -0.00  -0.02
   2   6    -0.21   0.10  -0.01    -0.00  -0.01  -0.07     0.00   0.00   0.00
   3   8    -0.08   0.24  -0.04    -0.00   0.00   0.02    -0.00   0.00   0.00
   4   6     0.24   0.01  -0.00     0.00   0.06   0.33    -0.00   0.00   0.03
   5   6     0.16  -0.26   0.04    -0.01  -0.05  -0.31     0.00   0.03   0.16
   6   6     0.17  -0.36   0.06    -0.00  -0.01  -0.10     0.00   0.04   0.21
   7   6    -0.33  -0.02   0.01    -0.00  -0.04  -0.24    -0.00  -0.03  -0.16
   8   7     0.18   0.32  -0.06     0.00   0.02   0.13     0.00   0.01   0.04
   9   6     0.11   0.26  -0.05    -0.00  -0.03  -0.18    -0.01  -0.06  -0.35
  10   1     0.02  -0.04   0.01    -0.07  -0.09   0.05    -0.01  -0.02   0.01
  11   1     0.02  -0.04   0.00     0.07   0.10   0.01     0.01   0.02   0.00
  12   1    -0.09  -0.23   0.05     0.00   0.01   0.06     0.00   0.00   0.00
  13   1    -0.03  -0.04   0.01     0.01   0.07   0.41    -0.00  -0.04  -0.23
  14   1     0.17  -0.03   0.01     0.01   0.09   0.50    -0.01  -0.07  -0.42
  15   1    -0.09  -0.04   0.01     0.01   0.07   0.39     0.01   0.06   0.32
  16   1    -0.02   0.05  -0.01     0.00   0.03   0.20     0.01   0.11   0.65
                     16                     17                     18
                        a                      a                      a 
 Frequencies --   921.9840               927.2429               976.7898
 Red. masses --     3.9667                 4.3793                 8.4847
 Frc consts  --     0.0000                 0.0000                 0.0000
 IR Inten    --     0.6587                 0.0851                40.0237
 Raman Activ --     0.0000                 0.0000                 0.0000
 Depolar     --     0.0000                 0.0000                 0.0000
 Atom AN      X      Y      Z        X      Y      Z        X      Y      Z
   1   6    -0.00  -0.01  -0.03    -0.00  -0.00  -0.01    -0.07   0.46  -0.07
   2   6     0.00   0.00   0.02     0.00   0.00   0.00    -0.24  -0.29   0.04
   3   8    -0.00  -0.00  -0.01    -0.00   0.00   0.00     0.13  -0.28   0.06
   4   6     0.00   0.01   0.07     0.00   0.01   0.08    -0.13  -0.02   0.01
   5   6    -0.01  -0.05  -0.30     0.00   0.04   0.22     0.08   0.20  -0.04
   6   6     0.00   0.02   0.10    -0.01  -0.06  -0.32     0.04  -0.11   0.02
   7   6     0.01   0.06   0.35     0.00   0.04   0.24    -0.16  -0.04   0.01
   8   7    -0.00  -0.01  -0.05     0.00   0.01   0.05     0.13   0.18  -0.03
   9   6    -0.00  -0.03  -0.16    -0.00  -0.05  -0.28     0.07  -0.08   0.01
  10   1    -0.02  -0.03   0.02    -0.01  -0.01   0.01     0.30   0.24  -0.04
  11   1     0.02   0.04   0.00     0.01   0.01   0.00     0.28   0.20  -0.07
  12   1     0.00   0.01   0.03    -0.00  -0.00  -0.00    -0.09  -0.25   0.04
  13   1     0.01   0.09   0.53    -0.01  -0.07  -0.39     0.04   0.04  -0.00
  14   1    -0.00  -0.05  -0.26     0.01   0.09   0.51    -0.02  -0.05   0.01
  15   1    -0.01  -0.09  -0.51    -0.01  -0.07  -0.39    -0.04  -0.08   0.02
  16   1     0.01   0.05   0.31     0.01   0.06   0.33    -0.02  -0.04   0.01
                     19                     20                     21
                        a                      a                      a 
 Frequencies --   986.7047              1001.9309              1092.2305
 Red. masses --     6.0419                 9.5971                 8.9921
 Frc consts  --     0.0000                 0.0000                 0.0000
 IR Inten    --    16.6878                 7.5132                13.6893
 Raman Activ --     0.0000                 0.0000                 0.0000
 Depolar     --     0.0000                 0.0000                 0.0000
 Atom AN      X      Y      Z        X      Y      Z        X      Y      Z
   1   6    -0.01  -0.06  -0.40     0.16  -0.14   0.03    -0.16  -0.04   0.01
   2   6    -0.00   0.08   0.50     0.02   0.05  -0.02     0.17   0.10  -0.02
   3   8     0.00  -0.03  -0.10    -0.01   0.09  -0.02    -0.05  -0.01   0.00
   4   6    -0.01  -0.03  -0.15    -0.18  -0.00   0.01     0.19   0.04  -0.01
   5   6     0.01   0.02   0.04     0.16   0.43  -0.08     0.19   0.14  -0.03
   6   6     0.00  -0.00   0.02     0.08  -0.19   0.03    -0.11   0.36  -0.06
   7   6    -0.01  -0.00  -0.01    -0.32  -0.01   0.01    -0.46  -0.06   0.02
   8   7     0.01   0.01   0.00     0.09   0.25  -0.04    -0.07  -0.34   0.06
   9   6     0.00  -0.00   0.04     0.12  -0.47   0.08     0.16  -0.15   0.02
  10   1    -0.24  -0.38   0.19    -0.15  -0.10   0.01     0.05   0.01   0.01
  11   1     0.26   0.43   0.03    -0.16  -0.11   0.03     0.05   0.01  -0.02
  12   1     0.00   0.03   0.20     0.09   0.24  -0.05    -0.07  -0.15   0.03
  13   1     0.00  -0.01  -0.07    -0.03   0.16  -0.03     0.19  -0.03   0.00
  14   1    -0.00  -0.01  -0.01    -0.04  -0.09   0.02     0.25   0.29  -0.05
  15   1    -0.00  -0.01  -0.02    -0.08  -0.06   0.01    -0.12  -0.16   0.03
  16   1    -0.00  -0.01  -0.06    -0.09  -0.20   0.04     0.20   0.03  -0.01
                     22                     23                     24
                        a                      a                      a 
 Frequencies --  1100.3986              1147.2340              1193.4455
 Red. masses --     6.5898                 3.5918                 2.5614
 Frc consts  --     0.0000                 0.0000                 0.0000
 IR Inten    --    30.2281                 0.8028                17.2075
 Raman Activ --     0.0000                 0.0000                 0.0000
 Depolar     --     0.0000                 0.0000                 0.0000
 Atom AN      X      Y      Z        X      Y      Z        X      Y      Z
   1   6    -0.30  -0.06   0.02     0.01   0.03  -0.01     0.04   0.01  -0.00
   2   6     0.35   0.20  -0.05    -0.04  -0.03   0.01    -0.08  -0.03   0.01
   3   8    -0.09  -0.03   0.01     0.03  -0.04   0.01    -0.00   0.02  -0.00
   4   6     0.36  -0.00  -0.01    -0.03   0.12  -0.02     0.09   0.00  -0.00
   5   6    -0.01   0.15  -0.03    -0.23  -0.06   0.01    -0.01   0.05  -0.01
   6   6    -0.08  -0.03   0.01     0.14  -0.14   0.02     0.03   0.09  -0.02
   7   6     0.13   0.06  -0.01    -0.00   0.19  -0.03     0.18  -0.15   0.02
   8   7    -0.11   0.02  -0.00    -0.06  -0.10   0.02     0.05   0.01  -0.00
   9   6    -0.03  -0.19   0.03     0.14  -0.21   0.03    -0.22   0.06  -0.01
  10   1     0.10   0.03   0.00     0.02   0.03  -0.02    -0.01   0.00  -0.01
  11   1     0.11   0.03  -0.02     0.02   0.03   0.01    -0.01   0.01   0.01
  12   1    -0.14  -0.34   0.07    -0.01  -0.05   0.01     0.01   0.02  -0.00
  13   1    -0.22   0.16  -0.02    -0.54   0.24  -0.03    -0.29   0.17  -0.02
  14   1    -0.30  -0.18   0.04     0.42   0.19  -0.04     0.37   0.25  -0.05
  15   1     0.03   0.13  -0.02    -0.02   0.37  -0.06     0.08  -0.55   0.09
  16   1    -0.28  -0.20   0.04     0.23   0.04  -0.01    -0.43  -0.17   0.04
                     25                     26                     27
                        a                      a                      a 
 Frequencies --  1242.9630              1257.7885              1286.4002
 Red. masses --     9.1907                 4.2810                11.6944
 Frc consts  --     0.0000                 0.0000                 0.0000
 IR Inten    --   151.4078                 7.8790                16.3090
 Raman Activ --     0.0000                 0.0000                 0.0000
 Depolar     --     0.0000                 0.0000                 0.0000
 Atom AN      X      Y      Z        X      Y      Z        X      Y      Z
   1   6    -0.16  -0.05   0.01    -0.06  -0.02   0.00     0.06   0.01  -0.00
   2   6     0.51   0.21  -0.05     0.14   0.04  -0.01    -0.11  -0.03   0.01
   3   8    -0.02  -0.08   0.02     0.01  -0.03   0.01    -0.03   0.04  -0.01
   4   6    -0.47  -0.09   0.03    -0.18   0.09  -0.01     0.14  -0.45   0.07
   5   6    -0.12   0.03  -0.00    -0.29   0.11  -0.01    -0.22   0.15  -0.02
   6   6     0.17  -0.13   0.02     0.08  -0.06   0.01     0.29   0.25  -0.05
   7   6     0.12  -0.05   0.01     0.01  -0.26   0.04    -0.03  -0.37   0.06
   8   7    -0.06   0.25  -0.04     0.04  -0.01   0.00    -0.38   0.17  -0.02
   9   6    -0.09   0.01   0.00     0.20   0.11  -0.02     0.37   0.17  -0.04
  10   1     0.04  -0.01   0.02     0.02  -0.01   0.02    -0.02   0.00  -0.01
  11   1     0.03  -0.01  -0.02     0.02  -0.01  -0.01    -0.02   0.00   0.01
  12   1    -0.07  -0.19   0.04    -0.02  -0.02   0.01     0.02   0.03  -0.01
  13   1     0.03  -0.04   0.01     0.34  -0.20   0.03    -0.15   0.09  -0.01
  14   1     0.14   0.02  -0.01     0.29   0.15  -0.03    -0.12  -0.05   0.01
  15   1     0.05  -0.29   0.05    -0.03   0.40  -0.07    -0.02  -0.02   0.00
  16   1     0.29   0.17  -0.03    -0.46  -0.23   0.05     0.09   0.04  -0.01
                     28                     29                     30
                        a                      a                      a 
 Frequencies --  1363.0217              1396.0163              1442.9604
 Red. masses --     3.3358                 9.7937                 9.1881
 Frc consts  --     0.0000                 0.0000                 0.0000
 IR Inten    --    27.4704                11.9332                10.6837
 Raman Activ --     0.0000                 0.0000                 0.0000
 Depolar     --     0.0000                 0.0000                 0.0000
 Atom AN      X      Y      Z        X      Y      Z        X      Y      Z
   1   6    -0.18  -0.40   0.08     0.00  -0.05   0.01    -0.03  -0.00   0.00
   2   6     0.03   0.02  -0.00     0.14   0.06  -0.01    -0.06  -0.01   0.00
   3   8    -0.01   0.01  -0.00    -0.03   0.01  -0.00    -0.03   0.05  -0.01
   4   6     0.01   0.04  -0.01    -0.30  -0.41   0.08     0.30  -0.24   0.04
   5   6    -0.03  -0.00   0.00     0.27   0.00  -0.01     0.06   0.27  -0.05
   6   6     0.03  -0.02   0.00    -0.09   0.20  -0.03    -0.43  -0.18   0.04
   7   6     0.02   0.01  -0.00    -0.16  -0.14   0.03     0.23  -0.26   0.04
   8   7    -0.06   0.02  -0.00     0.45  -0.12   0.01    -0.00   0.27  -0.05
   9   6     0.02  -0.03   0.00    -0.17   0.25  -0.04    -0.28  -0.09   0.02
  10   1     0.24   0.36  -0.31    -0.01   0.06  -0.07     0.07  -0.04   0.06
  11   1     0.25   0.45   0.15    -0.01   0.08   0.05     0.06  -0.06  -0.04
  12   1     0.08   0.45  -0.08    -0.00  -0.01   0.00     0.02   0.09  -0.02
  13   1     0.02  -0.02   0.00    -0.27   0.19  -0.03     0.14   0.02  -0.01
  14   1     0.00  -0.01   0.00    -0.07   0.04  -0.01     0.25   0.18  -0.04
  15   1     0.01  -0.05   0.01    -0.07   0.30  -0.05     0.04   0.22  -0.04
  16   1     0.02  -0.00   0.00    -0.10   0.04  -0.01     0.24   0.14  -0.03
                     31                     32                     33
                        a                      a                      a 
 Frequencies --  1458.9583              1464.0100              1564.3991
 Red. masses --     1.9592                 1.6141                11.5777
 Frc consts  --     0.0000                 0.0000                 0.0000
 IR Inten    --    10.6184                11.3032                35.6877
 Raman Activ --     0.0000                 0.0000                 0.0000
 Depolar     --     0.0000                 0.0000                 0.0000
 Atom AN      X      Y      Z        X      Y      Z        X      Y      Z
   1   6     0.22  -0.03  -0.00    -0.01  -0.04  -0.23    -0.02   0.01  -0.00
   2   6    -0.03   0.03  -0.00    -0.00  -0.01  -0.03    -0.01   0.01  -0.00
   3   8     0.03  -0.06   0.01     0.00  -0.00  -0.00     0.04  -0.04   0.01
   4   6     0.07   0.03  -0.01     0.00   0.00   0.01    -0.06   0.46  -0.08
   5   6     0.00   0.04  -0.01    -0.00  -0.00   0.00     0.21  -0.31   0.05
   6   6    -0.07  -0.04   0.01     0.00  -0.00  -0.00     0.09   0.30  -0.05
   7   6     0.05  -0.05   0.01    -0.00   0.00  -0.00     0.01  -0.55   0.09
   8   7    -0.04   0.06  -0.01    -0.00  -0.00  -0.00    -0.06   0.27  -0.05
   9   6    -0.03  -0.04   0.01     0.00   0.00  -0.00    -0.16  -0.22   0.04
  10   1    -0.41   0.25  -0.37     0.45   0.04   0.06     0.02  -0.01   0.01
  11   1    -0.39   0.37   0.27    -0.44  -0.01   0.10     0.01  -0.01  -0.01
  12   1    -0.06  -0.39   0.07     0.02   0.13   0.72    -0.00   0.00   0.00
  13   1     0.10  -0.04   0.01    -0.00  -0.00  -0.01    -0.12   0.02  -0.00
  14   1     0.04   0.03  -0.01    -0.00  -0.00   0.00    -0.10   0.01   0.00
  15   1     0.01   0.02  -0.00     0.00  -0.00   0.00    -0.03   0.15  -0.03
  16   1     0.04   0.01  -0.00    -0.00  -0.00   0.00     0.07   0.00  -0.00
                     34                     35                     36
                        a                      a                      a 
 Frequencies --  1569.6795              1733.7009              3025.7776
 Red. masses --    11.8681                13.3823                 1.9362
 Frc consts  --     0.0000                 0.0000                 0.0000
 IR Inten    --    84.7974               299.9361                10.8122
 Raman Activ --     0.0000                 0.0000                 0.0000
 Depolar     --     0.0000                 0.0000                 0.0000
 Atom AN      X      Y      Z        X      Y      Z        X      Y      Z
   1   6    -0.00  -0.01   0.00     0.00   0.05  -0.01     0.01  -0.09  -0.28
   2   6    -0.04   0.05  -0.01     0.34  -0.69   0.12     0.00  -0.00  -0.01
   3   8     0.02  -0.03   0.01    -0.28   0.53  -0.10    -0.00   0.00   0.00
   4   6     0.27  -0.03   0.00     0.00   0.04  -0.01    -0.00   0.00   0.00
   5   6    -0.47   0.13  -0.01    -0.04   0.01  -0.00     0.00   0.00  -0.00
   6   6     0.44   0.13  -0.03     0.04   0.02  -0.00     0.00  -0.00   0.00
   7   6    -0.17  -0.03   0.01    -0.01  -0.01   0.00     0.00   0.00  -0.00
   8   7     0.39  -0.06   0.00     0.02   0.01  -0.00     0.00   0.00   0.00
   9   6    -0.48  -0.14   0.03    -0.03  -0.04   0.01    -0.00   0.00  -0.00
  10   1    -0.00  -0.00   0.00     0.00   0.03  -0.03    -0.17   0.55   0.56
  11   1    -0.00  -0.00   0.00     0.00   0.04   0.02     0.14  -0.22   0.46
  12   1     0.00   0.01  -0.00    -0.01  -0.07   0.01     0.00  -0.01  -0.04
  13   1     0.09  -0.08   0.01     0.00  -0.01   0.00    -0.00  -0.00   0.00
  14   1    -0.05  -0.07   0.01    -0.00  -0.00   0.00    -0.00   0.00  -0.00
  15   1    -0.04   0.01  -0.00    -0.00   0.00  -0.00    -0.00   0.00  -0.00
  16   1     0.11   0.08  -0.01     0.02   0.00  -0.00     0.00  -0.00   0.00
                     37                     38                     39
                        a                      a                      a 
 Frequencies --  3028.9001              3058.1419              3061.6373
 Red. masses --     1.4785                 1.7468                 1.7951
 Frc consts  --     0.0000                 0.0000                 0.0000
 IR Inten    --     4.9205                11.0267                15.6445
 Raman Activ --     0.0000                 0.0000                 0.0000
 Depolar     --     0.0000                 0.0000                 0.0000
 Atom AN      X      Y      Z        X      Y      Z        X      Y      Z
   1   6    -0.07   0.17  -0.09     0.25  -0.06   0.01     0.01  -0.00   0.00
   2   6    -0.00   0.01  -0.00     0.01  -0.00  -0.00     0.00  -0.00   0.00
   3   8     0.00  -0.00   0.00    -0.00   0.00  -0.00    -0.00   0.00  -0.00
   4   6    -0.00  -0.00   0.00    -0.00   0.00  -0.00     0.00   0.00  -0.00
   5   6    -0.00  -0.01   0.00     0.00   0.01  -0.00     0.00  -0.00   0.00
   6   6    -0.00   0.00  -0.00    -0.00   0.00  -0.00     0.02  -0.03   0.00
   7   6    -0.00  -0.00   0.00     0.01   0.00  -0.00    -0.26  -0.02   0.01
   8   7    -0.00  -0.00   0.00     0.00   0.00  -0.00    -0.01   0.00  -0.00
   9   6     0.00  -0.00   0.00    -0.00   0.00  -0.00     0.01  -0.01   0.00
  10   1     0.10  -0.35  -0.41     0.03   0.00   0.02     0.00   0.00   0.00
  11   1     0.20  -0.29   0.73     0.02   0.00  -0.02     0.00   0.00  -0.00
  12   1    -0.04   0.03  -0.01    -0.94   0.20  -0.01    -0.05   0.01  -0.00
  13   1     0.02   0.03  -0.00    -0.01  -0.02   0.00    -0.00   0.00  -0.00
  14   1     0.00  -0.01   0.00     0.00  -0.00   0.00    -0.08   0.13  -0.02
  15   1     0.00  -0.00  -0.00    -0.05  -0.00   0.00     0.95   0.06  -0.03
  16   1    -0.00   0.01  -0.00     0.01  -0.01   0.00    -0.02   0.04  -0.01
                     40                     41                     42
                        a                      a                      a 
 Frequencies --  3071.1095              3082.5852              3095.6018
 Red. masses --     1.8083                 1.7942                 1.8942
 Frc consts  --     0.0000                 0.0000                 0.0000
 IR Inten    --     3.6046                13.2211                37.8054
 Raman Activ --     0.0000                 0.0000                 0.0000
 Depolar     --     0.0000                 0.0000                 0.0000
 Atom AN      X      Y      Z        X      Y      Z        X      Y      Z
   1   6    -0.00   0.00  -0.00     0.01  -0.01   0.00     0.00  -0.00   0.00
   2   6    -0.00   0.00  -0.00    -0.00  -0.00   0.00    -0.00  -0.00   0.00
   3   8     0.00  -0.00   0.00    -0.00   0.00  -0.00     0.00  -0.00   0.00
   4   6    -0.01   0.00  -0.00    -0.01  -0.00   0.00    -0.00   0.00  -0.00
   5   6     0.01   0.01  -0.00    -0.11  -0.20   0.04    -0.07  -0.13   0.02
   6   6     0.00  -0.00   0.00    -0.07   0.11  -0.02     0.13  -0.20   0.03
   7   6    -0.01  -0.00   0.00    -0.03   0.00   0.00     0.04   0.01  -0.00
   8   7    -0.00   0.01  -0.00     0.00  -0.00   0.00    -0.00   0.00  -0.00
   9   6    -0.12   0.24  -0.04    -0.00   0.01  -0.00    -0.00   0.00  -0.00
  10   1     0.00  -0.00  -0.00    -0.00   0.02   0.02    -0.00   0.01   0.01
  11   1     0.00  -0.00   0.00    -0.01   0.01  -0.02    -0.00   0.00  -0.01
  12   1     0.01  -0.00   0.00    -0.02   0.00  -0.00    -0.01   0.00  -0.00
  13   1    -0.02  -0.03   0.00     0.40   0.71  -0.13     0.24   0.42  -0.08
  14   1    -0.01   0.01  -0.00     0.26  -0.41   0.07    -0.43   0.68  -0.11
  15   1     0.05   0.00  -0.00     0.08   0.00  -0.00    -0.13  -0.01   0.00
  16   1     0.45  -0.84   0.14     0.01  -0.03   0.00     0.00  -0.01   0.00
