      -----------------------------------------------------------      
     |                   =====================                   |     
     |                           x T B                           |     
     |                   =====================                   |     
     |                         S. Grimme                         |     
     |          Mulliken Center for Theoretical Chemistry        |     
     |                    University of Bonn                     |     
      -----------------------------------------------------------      

   * xtb version 6.7.1 (edcfbbe) compiled by 'albert@albert-system' on 2024-07-22

   xtb is free software: you can redistribute it and/or modify it under
   the terms of the GNU Lesser General Public License as published by
   the Free Software Foundation, either version 3 of the License, or
   (at your option) any later version.
   
   xtb is distributed in the hope that it will be useful,
   but WITHOUT ANY WARRANTY; without even the implied warranty of
   MERCHANTABILITY or FITNESS FOR A PARTICULAR PURPOSE.  See the
   GNU Lesser General Public License for more details.
   
   Cite this work as:
   * C. Bannwarth, E. Caldeweyher, S. Ehlert, A. Hansen, P. Pracht,
     J. Seibert, S. Spicher, S. Grimme, WIREs Comput. Mol. Sci., 2020, 11,
     e01493. DOI: 10.1002/wcms.1493
   
   for GFN2-xTB:
   * C. Bannwarth, S. Ehlert and S. Grimme., J. Chem. Theory Comput., 2019,
     15, 1652-1671. DOI: 10.1021/acs.jctc.8b01176
   for GFN1-xTB:
   * S. Grimme, C. Bannwarth, P. Shushkov, J. Chem. Theory Comput., 2017,
     13, 1989-2009. DOI: 10.1021/acs.jctc.7b00118
   for GFN0-xTB:
   * P. Pracht, E. Caldeweyher, S. Ehlert, S. Grimme, ChemRxiv, 2019, preprint.
     DOI: 10.26434/chemrxiv.8326202.v1
   for GFN-FF:
   * S. Spicher and S. Grimme, Angew. Chem. Int. Ed., 2020, 59, 15665-15673.
     DOI: 10.1002/anie.202004239
   
   for ALPB and GBSA implicit solvation:
   * S. Ehlert, M. Stahn, S. Spicher, S. Grimme, J. Chem. Theory Comput.,
     2021, 17, 4250-4261. DOI: 10.1021/acs.jctc.1c00471
   
   for ddCOSMO and CPCM-X implicit solvation:
   * M. Stahn, S. Ehlert, S. Grimme, J. Phys. Chem. A,
     2023, XX, XXXX-XXXX. DOI: 10.1021/acs.jpca.3c04382
   
   for DFT-D4:
   * E. Caldeweyher, C. Bannwarth and S. Grimme, J. Chem. Phys., 2017,
     147, 034112. DOI: 10.1063/1.4993215
   * E. Caldeweyher, S. Ehlert, A. Hansen, H. Neugebauer, S. Spicher,
     C. Bannwarth and S. Grimme, J. Chem. Phys., 2019, 150, 154122.
     DOI: 10.1063/1.5090222
   * E. Caldeweyher, J.-M. Mewes, S. Ehlert and S. Grimme, Phys. Chem. Chem. Phys.
     2020, 22, 8499-8512. DOI: 10.1039/D0CP00502A
   
   for sTDA-xTB:
   * S. Grimme and C. Bannwarth, J. Chem. Phys., 2016, 145, 054103.
     DOI: 10.1063/1.4959605
   
   in the mass-spec context:
   * V. Asgeirsson, C. Bauer and S. Grimme, Chem. Sci., 2017, 8, 4879.
     DOI: 10.1039/c7sc00601b
   * J. Koopman and S. Grimme, ACS Omega 2019, 4, 12, 15120-15133.
     DOI: 10.1021/acsomega.9b02011
   
   for metadynamics refer to:
   * S. Grimme, J. Chem. Theory Comput., 2019, 155, 2847-2862
     DOI: 10.1021/acs.jctc.9b00143
   
   for SPH calculations refer to:
   * S. Spicher and S. Grimme, J. Chem. Theory Comput., 2021, 17, 1701-1714
     DOI: 10.1021/acs.jctc.0c01306
   
   for ONIOM refer to:
   * C. Plett, A. Katbashev, S. Ehlert, S. Grimme, M. Bursch,
     Phys. Chem. Chem. Phys., 2023, 25, 17860-17868. DOI: 10.1039/D3CP02178E
   
   for DIPRO refer to:
   * J. Kohn, N. Gildemeister, S. Grimme, D. Fazzi, A. Hansen,
     J. Chem. Phys., 2023, just accepted.
   
   for PTB refer to:
   * S. Grimme, M. Mueller, A. Hansen, J. Chem. Phys., 2023, 158, 124111.
     DOI: 10.1063/5.0137838
   
   with help from (in alphabetical order)
   P. Atkinson, C. Bannwarth, F. Bohle, G. Brandenburg, E. Caldeweyher
   M. Checinski, S. Dohm, S. Ehlert, S. Ehrlich, I. Gerasimov, C. Hölzer
   A. Katbashev, J. Kohn, J. Koopman, C. Lavigne, S. Lehtola, F. März, M. Müller,
   F. Musil, H. Neugebauer, J. Pisarek, C. Plett, P. Pracht, F. Pultar,
   J. Seibert, P. Shushkov, S. Spicher, M. Stahn, M. Steiner, T. Strunk,
   J. Stückrath, T. Rose, and J. Unsleber
   
 * started run on 2025/04/15 at 20:16:28.174     
   ID    Z sym.   atoms
    1    6 C      1, 3, 5-10
    2    8 O      2, 4
    3    1 H      11-24

           -------------------------------------------------
          |                Calculation Setup                |
           -------------------------------------------------

          program call               : /software/projects/pawsey0265/mwang1/xtb/bin/xtb xtb_rrho.coord --gfn2 --bhess vtight --chrg 0 --enso --norestart -I rrho-xcontrol-inp --parallel 1
          hostname                   : nid002568
          coordinate file            : xtb_rrho.coord
          omp threads                :                     1


           -------------------------------------------------
          |                 G F N 2 - x T B                 |
           -------------------------------------------------

        Reference                      10.1021/acs.jctc.8b01176
      * Hamiltonian:
        H0-scaling (s, p, d)           1.850000    2.230000    2.230000
        zeta-weighting                 0.500000
      * Dispersion:
        s8                             2.700000
        a1                             0.520000
        a2                             5.000000
        s9                             5.000000
      * Repulsion:
        kExp                           1.500000    1.000000
        rExp                           1.000000
      * Coulomb:
        alpha                          2.000000
        third order                    shell-resolved
        anisotropic                    true
        a3                             3.000000
        a5                             4.000000
        cn-shift                       1.200000
        cn-exp                         4.000000
        max-rad                        5.000000


          ...................................................
          :                      SETUP                      :
          :.................................................:
          :  # basis functions                  54          :
          :  # atomic orbitals                  54          :
          :  # shells                           34          :
          :  # electrons                        58          :
          :  max. iterations                   250          :
          :  Hamiltonian                  GFN2-xTB          :
          :  restarted?                      false          :
          :  GBSA solvation                  false          :
          :  PC potential                    false          :
          :  electronic temp.          300.0000000     K    :
          :  accuracy                    1.0000000          :
          :  -> integral cutoff          0.2500000E+02      :
          :  -> integral neglect         0.1000000E-07      :
          :  -> SCF convergence          0.1000000E-05 Eh   :
          :  -> wf. convergence          0.1000000E-03 e    :
          :  Broyden damping             0.4000000          :
          :  net charge                          0          :
          :  unpaired electrons                  0          :
          ...................................................

 iter      E             dE          RMSdq      gap      omega  full diag
   1    -32.7188915 -0.327189E+02  0.358E+00    5.66       0.0  T
   2    -32.7944234 -0.755319E-01  0.186E+00    4.53       1.0  T
   3    -32.7980753 -0.365196E-02  0.107E+00    4.98       1.0  T
   4    -32.8008454 -0.277004E-02  0.180E-01    4.64       1.0  T
   5    -32.8012414 -0.395972E-03  0.681E-02    4.72       1.0  T
   6    -32.8012476 -0.622618E-05  0.191E-02    4.72       1.1  T
   7    -32.8012483 -0.761569E-06  0.714E-03    4.72       2.9  T
   8    -32.8012485 -0.193220E-06  0.243E-03    4.72       8.4  T
   9    -32.8012486 -0.160660E-07  0.101E-03    4.72      20.2  T
  10    -32.8012486 -0.353027E-08  0.258E-04    4.72      79.1  T
  11    -32.8012486 -0.287670E-09  0.108E-04    4.72     189.8  T

   *** convergence criteria satisfied after 11 iterations ***

         #    Occupation            Energy/Eh            Energy/eV
      -------------------------------------------------------------
         1        2.0000           -0.7365097             -20.0414
       ...           ...                  ...                  ...
        23        2.0000           -0.4611654             -12.5490
        24        2.0000           -0.4472729             -12.1709
        25        2.0000           -0.4410451             -12.0014
        26        2.0000           -0.4257182             -11.5844
        27        2.0000           -0.4212103             -11.4617
        28        2.0000           -0.4205892             -11.4448
        29        2.0000           -0.4064430             -11.0599 (HOMO)
        30                         -0.2328843              -6.3371 (LUMO)
        31                         -0.0010729              -0.0292
        32                          0.0664780               1.8090
        33                          0.0738232               2.0088
        34                          0.0790056               2.1499
       ...                                ...                  ...
        54                          0.5981541              16.2766
      -------------------------------------------------------------
                  HL-Gap            0.1735588 Eh            4.7228 eV
             Fermi-level           -0.3196636 Eh           -8.6985 eV

 SCC (total)                   0 d,  0 h,  0 min,  0.056 sec
 SCC setup                      ...        0 min,  0.000 sec (  0.442%)
 Dispersion                     ...        0 min,  0.000 sec (  0.318%)
 classical contributions        ...        0 min,  0.000 sec (  0.084%)
 integral evaluation            ...        0 min,  0.003 sec (  4.685%)
 iterations                     ...        0 min,  0.042 sec ( 75.788%)
 molecular gradient             ...        0 min,  0.010 sec ( 18.352%)
 printout                       ...        0 min,  0.000 sec (  0.286%)

         :::::::::::::::::::::::::::::::::::::::::::::::::::::
         ::                     SUMMARY                     ::
         :::::::::::::::::::::::::::::::::::::::::::::::::::::
         :: total energy             -32.431629333543 Eh    ::
         :: gradient norm              0.036617998911 Eh/a0 ::
         :: HOMO-LUMO gap              4.722774188144 eV    ::
         ::.................................................::
         :: SCC energy               -32.801079995377 Eh    ::
         :: -> isotropic ES            0.046312381188 Eh    ::
         :: -> anisotropic ES          0.004126224248 Eh    ::
         :: -> anisotropic XC          0.010206769814 Eh    ::
         :: -> dispersion             -0.018372159166 Eh    ::
         :: repulsion energy           0.369450661834 Eh    ::
         :: add. restraining           0.000000000000 Eh    ::
         :: total charge              -0.000000000000 e     ::
         :::::::::::::::::::::::::::::::::::::::::::::::::::::

metadynamics with 1 initial structures loaded
           -------------------------------------------------
          |           Optimal kpush determination           |
           -------------------------------------------------
      ----------------------------------------------------------- 
     |                   =====================                   |
     |                        A N C O P T                        |
     |                   =====================                   |
     |               Approximate Normal Coordinate               |
     |                Rational Function Optimizer                |
      ----------------------------------------------------------- 
target rmsd / Å         0.100000
unbiased initial rmsd   0.689452
 
iter. min.        max.        rmsd       kpush
      ----------------------------------------------------------- 
     |                   =====================                   |
     |                        A N C O P T                        |
     |                   =====================                   |
     |               Approximate Normal Coordinate               |
     |                Rational Function Optimizer                |
      ----------------------------------------------------------- 
 1    0.000000    1.090909    0.010298   -0.545455
      ----------------------------------------------------------- 
     |                   =====================                   |
     |                        A N C O P T                        |
     |                   =====================                   |
     |               Approximate Normal Coordinate               |
     |                Rational Function Optimizer                |
      ----------------------------------------------------------- 
 2    0.000000    0.545455    0.013537   -0.272727
      ----------------------------------------------------------- 
     |                   =====================                   |
     |                        A N C O P T                        |
     |                   =====================                   |
     |               Approximate Normal Coordinate               |
     |                Rational Function Optimizer                |
      ----------------------------------------------------------- 
 3    0.000000    0.272727    0.018493   -0.136364
      ----------------------------------------------------------- 
     |                   =====================                   |
     |                        A N C O P T                        |
     |                   =====================                   |
     |               Approximate Normal Coordinate               |
     |                Rational Function Optimizer                |
      ----------------------------------------------------------- 
 4    0.000000    0.136364    0.026255   -0.068182
      ----------------------------------------------------------- 
     |                   =====================                   |
     |                        A N C O P T                        |
     |                   =====================                   |
     |               Approximate Normal Coordinate               |
     |                Rational Function Optimizer                |
      ----------------------------------------------------------- 
 5    0.000000    0.068182    0.037846   -0.034091
      ----------------------------------------------------------- 
     |                   =====================                   |
     |                        A N C O P T                        |
     |                   =====================                   |
     |               Approximate Normal Coordinate               |
     |                Rational Function Optimizer                |
      ----------------------------------------------------------- 
 6    0.000000    0.034091    0.057140   -0.017045
      ----------------------------------------------------------- 
     |                   =====================                   |
     |                        A N C O P T                        |
     |                   =====================                   |
     |               Approximate Normal Coordinate               |
     |                Rational Function Optimizer                |
      ----------------------------------------------------------- 
 7    0.000000    0.017045    0.105774   -0.008523
      ----------------------------------------------------------- 
     |                   =====================                   |
     |                        A N C O P T                        |
     |                   =====================                   |
     |               Approximate Normal Coordinate               |
     |                Rational Function Optimizer                |
      ----------------------------------------------------------- 
 8    0.008523    0.017045    0.071107   -0.012784
      ----------------------------------------------------------- 
     |                   =====================                   |
     |                        A N C O P T                        |
     |                   =====================                   |
     |               Approximate Normal Coordinate               |
     |                Rational Function Optimizer                |
      ----------------------------------------------------------- 
 9    0.008523    0.012784    0.083680   -0.010653
      ----------------------------------------------------------- 
     |                   =====================                   |
     |                        A N C O P T                        |
     |                   =====================                   |
     |               Approximate Normal Coordinate               |
     |                Rational Function Optimizer                |
      ----------------------------------------------------------- 
10    0.008523    0.010653    0.092734   -0.009588
final kpush: -0.009588
           -------------------------------------------------
          |            Biased Numerical Hessian             |
           -------------------------------------------------
kpush                :  -0.00959
alpha                :   1.00000
step length          :   0.00500
SCC accuracy         :   0.30000
Hessian scale factor :   1.00000
frozen atoms in %    :   0.00000    0
RMS gradient         :   0.00006
estimated CPU  time      0.02 min
estimated wall time      0.02 min

writing file <hessian>.

 projected vibrational frequencies (cm⁻¹)
eigval :       -0.00    -0.00    -0.00     0.00     0.00     0.00
eigval :      -33.14    97.91    67.58   145.26   179.53   219.34
eigval :      264.61   308.64   356.52   375.93   427.87   491.39
eigval :      569.33   631.27   744.14   815.12   829.89   875.85
eigval :      894.86   932.39   947.31   956.13  1002.17  1030.23
eigval :     1087.92  1093.59  1112.53  1111.04  1121.95  1136.64
eigval :     1150.02  1174.12  1194.18  1235.93  1245.30  1259.40
eigval :     1278.02  1315.94  1330.81  1345.90  1348.81  1353.49
eigval :     1361.14  1386.19  1441.04  1464.86  1474.90  1481.04
eigval :     1486.52  1488.94  1501.82  1755.29  2917.68  2959.92
eigval :     2961.91  2966.83  2971.44  2975.17  2975.70  2983.69
eigval :     2985.98  2987.76  2988.03  2991.13  3014.24  3040.44
           -------------------------------------------------
          |                Property Printout                |
           -------------------------------------------------

    * Orbital Energies and Occupations

         #    Occupation            Energy/Eh            Energy/eV
      -------------------------------------------------------------
         1        2.0000           -0.7424088             -20.2020
       ...           ...                  ...                  ...
        17        2.0000           -0.5000962             -13.6083
        18        2.0000           -0.4953437             -13.4790
        19        2.0000           -0.4838403             -13.1660
        20        2.0000           -0.4748485             -12.9213
        21        2.0000           -0.4694908             -12.7755
        22        2.0000           -0.4687036             -12.7541
        23        2.0000           -0.4623350             -12.5808
        24        2.0000           -0.4479104             -12.1883
        25        2.0000           -0.4411042             -12.0031
        26        2.0000           -0.4261264             -11.5955
        27        2.0000           -0.4189528             -11.4003
        28        2.0000           -0.4183310             -11.3834
        29        2.0000           -0.4061098             -11.0508 (HOMO)
        30                         -0.2256522              -6.1403 (LUMO)
        31                          0.0121307               0.3301
        32                          0.0749502               2.0395
        33                          0.0855529               2.3280
        34                          0.0877746               2.3885
        35                          0.1023544               2.7852
        36                          0.1055217               2.8714
        37                          0.1163306               3.1655
        38                          0.1292248               3.5164
        39                          0.1327726               3.6129
        40                          0.1490193               4.0550
       ...                                ...                  ...
        54                          0.6398110              17.4101
      -------------------------------------------------------------
                  HL-Gap            0.1804576 Eh            4.9105 eV
             Fermi-level           -0.3158810 Eh           -8.5956 eV

     #   Z          covCN         q      C6AA      α(0)
     1   6 C        3.658     0.034    20.292     6.465
     2   8 O        1.704    -0.254    18.206     5.761
     3   6 C        2.728     0.356    20.956     7.494
     4   8 O        0.856    -0.420    22.095     6.302
     5   6 C        3.853    -0.043    21.300     6.564
     6   6 C        3.810    -0.055    21.549     6.608
     7   6 C        3.805    -0.054    21.548     6.608
     8   6 C        3.806    -0.056    21.582     6.613
     9   6 C        3.804    -0.059    21.631     6.621
    10   6 C        3.804    -0.057    21.601     6.617
    11   1 H        0.924     0.059     2.213     2.326
    12   1 H        0.925     0.065     2.138     2.287
    13   1 H        0.924     0.065     2.140     2.288
    14   1 H        0.924     0.056     2.244     2.342
    15   1 H        0.924     0.046     2.377     2.411
    16   1 H        0.924     0.042     2.425     2.435
    17   1 H        0.924     0.032     2.557     2.501
    18   1 H        0.924     0.032     2.563     2.504
    19   1 H        0.924     0.029     2.597     2.520
    20   1 H        0.924     0.033     2.544     2.494
    21   1 H        0.925     0.045     2.382     2.414
    22   1 H        0.924     0.030     2.586     2.515
    23   1 H        0.924     0.037     2.490     2.468
    24   1 H        0.924     0.038     2.472     2.459

 Mol. C6AA /au·bohr⁶  :       4550.301662
 Mol. C8AA /au·bohr⁸  :      98429.751292
 Mol. α(0) /au        :         99.617166


Wiberg/Mayer (AO) data.
largest (>0.10) Wiberg bond orders for each atom

 ---------------------------------------------------------------------------
     #   Z sym  total        # sym  WBO       # sym  WBO       # sym  WBO
 ---------------------------------------------------------------------------
     1   6 C    3.929 --    12 H    0.982    11 H    0.977    13 H    0.977
                             2 O    0.958
     2   8 O    2.313 --     3 C    1.133     1 C    0.958     4 O    0.170
     3   6 C    3.911 --     4 O    1.748     2 O    1.133     5 C    0.960
     4   8 O    2.028 --     3 C    1.748     2 O    0.170
     5   6 C    3.993 --    10 C    0.998     6 C    0.973     3 C    0.960
                            14 H    0.950
     6   6 C    3.994 --     7 C    1.010    15 H    0.976    16 H    0.975
                             5 C    0.973
     7   6 C    3.998 --     6 C    1.010     8 C    1.009    17 H    0.977
                            18 H    0.977
     8   6 C    3.998 --     9 C    1.009     7 C    1.009    19 H    0.978
                            20 H    0.977
     9   6 C    3.997 --     8 C    1.009    10 C    1.008    22 H    0.977
                            21 H    0.975
    10   6 C    3.997 --     9 C    1.008     5 C    0.998    24 H    0.977
                            23 H    0.976
    11   1 H    0.996 --     1 C    0.977
    12   1 H    0.996 --     1 C    0.982
    13   1 H    0.996 --     1 C    0.977
    14   1 H    0.997 --     5 C    0.950
    15   1 H    0.998 --     6 C    0.976
    16   1 H    0.998 --     6 C    0.975
    17   1 H    0.999 --     7 C    0.977
    18   1 H    0.999 --     7 C    0.977
    19   1 H    0.999 --     8 C    0.978
    20   1 H    0.999 --     8 C    0.977
    21   1 H    0.998 --     9 C    0.975
    22   1 H    0.999 --     9 C    0.977
    23   1 H    0.999 --    10 C    0.976
    24   1 H    0.999 --    10 C    0.977
 ---------------------------------------------------------------------------

Topologies differ in total number of bonds
Writing topology from bond orders to xtbtopo.mol

molecular dipole:
                 x           y           z       tot (Debye)
 q only:        0.448       0.678       0.251
   full:        0.420       0.729       0.224       2.213
molecular quadrupole (traceless):
                xx          xy          yy          xz          yz          zz
 q only:        0.755      -6.154      -2.988      -4.314       0.389       2.234
  q+dip:        0.548      -7.222      -4.029      -4.539      -0.082       3.481
   full:        0.509      -7.428      -4.114      -4.134      -0.328       3.605

           -------------------------------------------------
          |                Geometry Summary                 |
           -------------------------------------------------

      molecular mass/u    :      142.1958675
   center of mass at/Å    :        0.0109893      -0.0170767       0.0293449
  moments of inertia/u·Å² :        0.2409023E+03   0.4940462E+03   0.5602746E+03
rotational constants/cm⁻¹ :        0.6997704E-01   0.3412157E-01   0.3008816E-01

 * 23 selected distances

     #   Z          #   Z                                           value/Å
     1   6 C        2   8 O                                       1.4204767
     2   8 O        3   6 C                                       1.3367222
     3   6 C        4   8 O                                       1.2050953
     5   6 C        6   6 C                                       1.5377108 (max)
     6   6 C        7   6 C                                       1.5248437
     7   6 C        8   6 C                                       1.5248400
     8   6 C        9   6 C                                       1.5247360
     5   6 C       10   6 C                                       1.5299351
     9   6 C       10   6 C                                       1.5272535
     1   6 C       11   1 H                                       1.0918597
     1   6 C       12   1 H                                       1.0871234 (min)
     1   6 C       13   1 H                                       1.0920796
     5   6 C       14   1 H                                       1.0970515
     6   6 C       15   1 H                                       1.0915983
     6   6 C       16   1 H                                       1.0921027
     7   6 C       17   1 H                                       1.0922318
     7   6 C       18   1 H                                       1.0920348
     8   6 C       19   1 H                                       1.0918743
     8   6 C       20   1 H                                       1.0928902
     9   6 C       21   1 H                                       1.0897046
     9   6 C       22   1 H                                       1.0924006
    10   6 C       23   1 H                                       1.0914329
    10   6 C       24   1 H                                       1.0932657

 * 3 distinct bonds (by element types)

   Z      Z             #   av. dist./Å        max./Å        min./Å
   1 H    6 C          14     1.0919750     1.0970515     1.0871234
   6 C    6 C           6     1.5282198     1.5377108     1.5247360
   6 C    8 O           3     1.3207647     1.4204767     1.2050953

           -------------------------------------------------
          |               Frequency Printout                |
           -------------------------------------------------
 projected vibrational frequencies (cm⁻¹)
eigval :       -0.00    -0.00    -0.00     0.00     0.00     0.00
eigval :      -33.14    97.91    67.58   145.26   179.53   219.34
eigval :      264.61   308.64   356.52   375.93   427.87   491.39
eigval :      569.33   631.27   744.14   815.12   829.89   875.85
eigval :      894.86   932.39   947.31   956.13  1002.17  1030.23
eigval :     1087.92  1093.59  1112.53  1111.04  1121.95  1136.64
eigval :     1150.02  1174.12  1194.18  1235.93  1245.30  1259.40
eigval :     1278.02  1315.94  1330.81  1345.90  1348.81  1353.49
eigval :     1361.14  1386.19  1441.04  1464.86  1474.90  1481.04
eigval :     1486.52  1488.94  1501.82  1755.29  2917.68  2959.92
eigval :     2961.91  2966.83  2971.44  2975.17  2975.70  2983.69
eigval :     2985.98  2987.76  2988.03  2991.13  3014.24  3040.44
 reduced masses (amu)
   1: 10.31   2: 11.73   3: 11.25   4: 12.27   5: 11.58   6: 10.44   7: 13.79   8:  9.70
   9:  1.68  10:  9.60  11: 10.72  12:  8.84  13:  9.00  14: 10.16  15:  6.33  16: 10.84
  17:  9.96  18:  7.97  19: 10.30  20:  9.89  21: 10.38  22:  4.69  23: 10.77  24:  8.02
  25:  6.42  26:  7.84  27:  7.98  28:  4.26  29:  7.91  30: 10.91  31:  4.52  32:  6.39
  33:  7.99  34:  4.32  35:  3.95  36:  2.88  37:  5.97  38:  6.01  39:  9.85  40:  4.35
  41:  4.08  42:  3.73  43:  4.89  44:  6.10  45:  3.86  46:  4.68  47:  4.64  48:  5.13
  49:  4.80  50:  2.53  51:  1.54  52:  1.57  53:  1.87  54:  1.93  55:  2.00  56:  1.86
  57:  2.02  58: 13.41  59:  1.75  60:  1.87  61:  1.85  62:  1.91  63:  1.80  64:  1.89
  65:  1.90  66:  1.63  67:  1.54  68:  1.45  69:  1.57  70:  1.59  71:  1.69  72:  1.77
 IR intensities (km·mol⁻¹)
   1:  0.30   2:  0.09   3:  0.25   4:  0.06   5:  0.28   6:  0.14   7:  3.53   8:  0.04
   9:  0.18  10:  0.32  11:  3.91  12:  3.10  13:  1.80  14: 10.41  15:  0.18  16:  4.26
  17:  1.62  18:  5.42  19:  2.61  20: 12.61  21: 18.01  22:  1.81  23: 10.84  24:  6.49
  25:  8.28  26:  1.49  27: 12.83  28:  3.30  29:  7.02  30:  8.86  31:  3.70  32: 13.38
  33:100.16  34:  0.12  35:  2.03  36:  2.21  37:  8.54  38:  0.33  39:180.01  40: 24.15
  41:  6.27  42: 20.90  43: 14.75  44:  3.36  45:  0.65  46:  1.59  47:  2.73  48:  0.37
  49:  1.74  50:  7.33  51:  6.35  52:  4.32  53:  0.52  54:  2.03  55:  2.07  56:  0.62
  57:  0.88  58:389.12  59: 26.59  60: 11.00  61: 26.18  62:  8.39  63: 23.71  64: 40.84
  65: 19.79  66:122.94  67: 65.70  68: 13.92  69: 41.01  70: 71.17  71: 53.36  72: 10.42
 Raman intensities (Ä⁴*amu⁻¹)
   1:  0.00   2:  0.00   3:  0.00   4:  0.00   5:  0.00   6:  0.00   7:  0.00   8:  0.00
   9:  0.00  10:  0.00  11:  0.00  12:  0.00  13:  0.00  14:  0.00  15:  0.00  16:  0.00
  17:  0.00  18:  0.00  19:  0.00  20:  0.00  21:  0.00  22:  0.00  23:  0.00  24:  0.00
  25:  0.00  26:  0.00  27:  0.00  28:  0.00  29:  0.00  30:  0.00  31:  0.00  32:  0.00
  33:  0.00  34:  0.00  35:  0.00  36:  0.00  37:  0.00  38:  0.00  39:  0.00  40:  0.00
  41:  0.00  42:  0.00  43:  0.00  44:  0.00  45:  0.00  46:  0.00  47:  0.00  48:  0.00
  49:  0.00  50:  0.00  51:  0.00  52:  0.00  53:  0.00  54:  0.00  55:  0.00  56:  0.00
  57:  0.00  58:  0.00  59:  0.00  60:  0.00  61:  0.00  62:  0.00  63:  0.00  64:  0.00
  65:  0.00  66:  0.00  67:  0.00  68:  0.00  69:  0.00  70:  0.00  71:  0.00  72:  0.00
 output can be read by thermo (or use thermo option).
 writing <g98.out> molden fake output.
 recommended (thermochemical) frequency scaling factor: 1.0
           -------------------------------------------------
          |             Thermodynamic Functions             |
           -------------------------------------------------

Molecule has no symmetry elements
It seems to be the C1 point group
c1  symmetry found (for desy threshold:  0.10E+00) used in thermo
 inverting freq            1   33.1416792226120     

          ...................................................
          :                      SETUP                      :
          :.................................................:
          :  # frequencies                          66      :
          :  # imaginary freq.                       0      :
          :  linear?                             false      :
          :  only rotor calc.                    false      :
          :  symmetry                               c1      :
          :  rotational number                       1      :
          :  scaling factor                  1.0000000      :
          :  rotor cutoff                    0.0000000 cm⁻¹ :
          :  imag. cutoff                 -100.0000000 cm⁻¹ :
          :.................................................:

    mode    ω/cm⁻¹     T·S(HO)/kcal·mol⁻¹    T·S(FR)/kcal·mol⁻¹   T·S(vib)
   ------------------------------------------------------------------------
       1     33.14    -1.67915 (100.00%)    -1.17803 (  0.00%)    -1.67915
       2     97.91    -1.04217 (100.00%)    -0.85734 (  0.00%)    -1.04217
       3     67.58    -1.25896 (100.00%)    -0.96712 (  0.00%)    -1.25896
       4    145.26    -0.81495 (100.00%)    -0.74052 (  0.00%)    -0.81495
       5    179.53    -0.69568 (100.00%)    -0.67780 (  0.00%)    -0.69568
       6    219.34    -0.58572 (100.00%)    -0.61847 (  0.00%)    -0.58572
       7    264.61    -0.48634 (100.00%)    -0.56290 (  0.00%)    -0.48634
   ------------------------------------------------------------------------

   temp. (K)  partition function   enthalpy   heat capacity  entropy
                                   cal/mol     cal/K/mol   cal/K/mol   J/K/mol
 298.15  VIB  0.154E+04             4707.004     32.244     30.367
         ROT  0.624E+06              888.752      2.981     29.498
         INT  0.958E+09             5595.757     35.225     59.865
         TR   0.164E+28             1481.254      4.968     40.749
         TOT                        7077.0106    40.1933   100.6136   420.9673

       T/K    H(0)-H(T)+PV         H(T)/Eh          T*S/Eh         G(T)/Eh
   ------------------------------------------------------------------------
    298.15    0.112779E-01    0.220080E+00    0.478048E-01    0.172276E+00
   ------------------------------------------------------------------------

         :::::::::::::::::::::::::::::::::::::::::::::::::::::
         ::                  THERMODYNAMIC                  ::
         :::::::::::::::::::::::::::::::::::::::::::::::::::::
         :: total free energy         -32.270913879453 Eh   ::
         ::.................................................::
         :: total energy              -32.443189420043 Eh   ::
         :: zero point energy           0.208802374211 Eh   ::
         :: G(RRHO) w/o ZPVE           -0.036526833621 Eh   ::
         :: G(RRHO) contrib.            0.172275540590 Eh   ::
         :::::::::::::::::::::::::::::::::::::::::::::::::::::
imag cut-off (cm-1) :    5.00
 found            1  significant imaginary frequency
 writing imag mode distorted coords to xtbhess.coord
 for further optimization.

optimized geometry written to: xtbopt.coord


           -------------------------------------------------
          | TOTAL ENERGY              -32.443189420043 Eh   |
          | TOTAL ENTHALPY            -32.223109111587 Eh   |
          | TOTAL FREE ENERGY         -32.270913879453 Eh   |
          | GRADIENT NORM               0.000055750275 Eh/α |
          | HOMO-LUMO GAP               4.910501783639 eV   |
           -------------------------------------------------

------------------------------------------------------------------------
 * finished run on 2025/04/15 at 20:16:32.660     
------------------------------------------------------------------------
 total:
 * wall-time:     0 d,  0 h,  0 min,  4.483 sec
 *  cpu-time:     0 d,  0 h,  0 min,  4.418 sec
 * ratio c/w:     0.985 speedup
 SCF:
 * wall-time:     0 d,  0 h,  0 min,  0.056 sec
 *  cpu-time:     0 d,  0 h,  0 min,  0.032 sec
 * ratio c/w:     0.576 speedup
 analytical hessian:
 * wall-time:     0 d,  0 h,  0 min,  1.403 sec
 *  cpu-time:     0 d,  0 h,  0 min,  1.401 sec
 * ratio c/w:     0.999 speedup

